/*--------------------------------*- C++ -*----------------------------------*\
| =========                 |                                                 |
| \\      /  F ield         | OpenFOAM: The Open Source CFD Toolbox           |
|  \\    /   O peration     | Version:  2512                                  |
|   \\  /    A nd           | Website:  www.openfoam.com                      |
|    \\/     M anipulation  |                                                 |
\*---------------------------------------------------------------------------*/
FoamFile
{
    version     2.0;
    format      ascii;
    arch        "LSB;label=32;scalar=64";
    class       volVectorField;
    location    "0.004";
    object      U;
}
// * * * * * * * * * * * * * * * * * * * * * * * * * * * * * * * * * * * * * //

dimensions      [0 1 -1 0 0 0 0];

internalField   nonuniform List<vector> 
100
(
(-2.24998e-14 0 0)
(-3.81506e-14 0 0)
(8.74088e-16 0 0)
(6.91101e-14 0 0)
(2.35097e-14 0 0)
(8.03046e-15 0 0)
(-7.89335e-15 0 0)
(-1.23973e-14 0 0)
(-3.23858e-14 0 0)
(-2.48513e-14 0 0)
(2.52178e-14 0 0)
(1.86186e-14 0 0)
(6.57651e-15 0 0)
(-3.07729e-14 0 0)
(-2.02377e-14 0 0)
(-2.51615e-14 0 0)
(-6.93335e-14 0 0)
(-4.12139e-14 0 0)
(4.20115e-14 0 0)
(8.61698e-14 0 0)
(2.29805e-14 0 0)
(-3.129e-14 0 0)
(-2.64717e-16 0 0)
(-2.78372e-15 0 0)
(-1.93237e-14 0 0)
(-5.18766e-14 0 0)
(-4.5885e-15 0 0)
(7.3099e-14 0 0)
(3.4813e-14 0 0)
(-2.13559e-14 0 0)
(-3.09028e-14 0 0)
(3.61725e-10 0 0)
(1.78399e-05 0 0)
(0.0225858 0 0)
(1.46458 0 0)
(12.7225 0 0)
(35.3207 0 0)
(58.4529 0 0)
(78.9347 0 0)
(97.9272 0 0)
(116.386 0 0)
(134.712 0 0)
(153.069 0 0)
(171.54 0 0)
(190.177 0 0)
(208.994 0 0)
(227.976 0 0)
(246.91 0 0)
(265.358 0 0)
(282.203 0 0)
(293.816 0 0)
(296.253 0 0)
(291.628 0 0)
(292.394 0 0)
(293.333 0 0)
(293.919 0 0)
(293.985 0 0)
(293.598 0 0)
(293.307 0 0)
(293.259 0 0)
(293.695 0 0)
(294.302 0 0)
(293.881 0 0)
(298.861 0 0)
(298.914 0 0)
(291.617 0 0)
(288.067 0 0)
(287.662 0 0)
(287.763 0 0)
(291.45 0 0)
(293.998 0 0)
(282.737 0 0)
(146.75 0 0)
(4.36749 0 0)
(0.000649988 0 0)
(8.7312e-10 0 0)
(9.72295e-14 0 0)
(1.13501e-13 0 0)
(8.00629e-14 0 0)
(7.61037e-14 0 0)
(5.61214e-14 0 0)
(1.49993e-14 0 0)
(6.31271e-14 0 0)
(2.43429e-14 0 0)
(-4.44219e-14 0 0)
(-9.95512e-14 0 0)
(-1.08165e-13 0 0)
(-4.82652e-14 0 0)
(-9.58267e-14 0 0)
(-2.14508e-13 0 0)
(-2.32326e-13 0 0)
(-2.19488e-13 0 0)
(-1.38277e-13 0 0)
(-7.09173e-14 0 0)
(-7.70815e-14 0 0)
(-1.04094e-13 0 0)
(-4.69843e-14 0 0)
(-5.90859e-15 0 0)
(2.86792e-16 0 0)
(5.20733e-14 0 0)
)
;

boundaryField
{
    sides
    {
        type            zeroGradient;
    }
    empty
    {
        type            empty;
    }
}


// ************************************************************************* //
