/*--------------------------------*- C++ -*----------------------------------*\
| =========                 |                                                 |
| \\      /  F ield         | OpenFOAM: The Open Source CFD Toolbox           |
|  \\    /   O peration     | Version:  2512                                  |
|   \\  /    A nd           | Website:  www.openfoam.com                      |
|    \\/     M anipulation  |                                                 |
\*---------------------------------------------------------------------------*/
FoamFile
{
    version     2.0;
    format      ascii;
    arch        "LSB;label=32;scalar=64";
    class       volScalarField;
    location    "0.143";
    object      alphat;
}
// * * * * * * * * * * * * * * * * * * * * * * * * * * * * * * * * * * * * * //

dimensions      [1 -1 -1 0 0 0 0];

internalField   nonuniform List<scalar> 
16000
(
6.1622109e-07
1.2054361e-05
2.0320311e-05
2.523366e-05
2.0088373e-05
2.7298994e-05
1.9382736e-05
2.6680685e-05
2.0742425e-05
2.8850278e-05
2.4132806e-05
2.8503704e-05
2.5883751e-05
2.659339e-05
2.5660548e-05
2.5509869e-05
2.5234315e-05
2.5159827e-05
2.5173067e-05
2.5296607e-05
2.5522212e-05
2.584864e-05
2.6273196e-05
2.6796006e-05
2.7419364e-05
2.8149873e-05
2.8996388e-05
2.9973044e-05
3.1097131e-05
3.2387325e-05
3.3864142e-05
3.5554837e-05
3.7494607e-05
3.9726852e-05
4.2305035e-05
4.5293018e-05
4.8766981e-05
5.2817859e-05
5.7558303e-05
6.3128075e-05
6.9691464e-05
7.7442134e-05
8.6624382e-05
9.7537789e-05
0.00011053938
0.00012605771
0.00014462451
0.00016688826
0.00019363918
0.00022584109
0.00026467454
0.00031158915
0.00036835937
0.00043716257
0.00052067143
0.00062218057
0.00074576517
0.00089648722
0.0010806704
0.0011792758
0.001180102
0.001180829
0.0011814555
0.0011819443
0.0011822925
0.0011824885
0.0011825234
0.0011823887
0.0011820729
0.0011815564
0.0011808027
0.0011797384
0.0011783181
0.0011769092
0.0011756832
0.0011745402
0.0011734467
0.0011729639
0.0011721676
0.0011723134
5.2845295e-07
1.1392671e-05
2.1040393e-05
2.2779746e-05
1.8098822e-05
2.4459341e-05
1.7188632e-05
2.3335702e-05
1.8311321e-05
2.5437829e-05
2.1831828e-05
2.5667293e-05
2.3650674e-05
2.4071597e-05
2.3344429e-05
2.3138658e-05
2.2911284e-05
2.2833748e-05
2.2850333e-05
2.2964871e-05
2.3174895e-05
2.3478747e-05
2.3874349e-05
2.4361936e-05
2.4943252e-05
2.5624461e-05
2.6413255e-05
2.7322367e-05
2.8368148e-05
2.956881e-05
3.0943462e-05
3.2517029e-05
3.4322108e-05
3.6398907e-05
3.8797466e-05
4.1577856e-05
4.4812208e-05
4.8586021e-05
5.3004285e-05
5.8199352e-05
6.4329158e-05
7.1576159e-05
8.0170545e-05
9.0398056e-05
0.00010260174
0.00011718922
0.00013466798
0.00015565911
0.00018092126
0.00021138043
0.00024817135
0.00029269112
0.0003466524
0.00041216082
0.00049180359
0.00058877308
0.00070702247
0.00085145771
0.0010281913
0.0011787995
0.0011796233
0.0011803023
0.0011808903
0.0011813436
0.0011816592
0.0011818255
0.0011818328
0.0011816723
0.0011813328
0.0011807955
0.0011800301
0.0011789737
0.0011775755
0.0011762276
0.0011750574
0.0011739526
0.0011729372
0.0011722861
0.0011718913
0.0011723195
4.6174664e-07
1.0889012e-05
1.9903974e-05
2.0777644e-05
1.6203485e-05
2.1538112e-05
1.5289379e-05
2.0258012e-05
1.6447683e-05
2.2279e-05
1.9882945e-05
2.2817672e-05
2.1399435e-05
2.1529489e-05
2.0973162e-05
2.0746376e-05
2.0558214e-05
2.0489121e-05
2.0511396e-05
2.0621784e-05
2.0819444e-05
2.1103143e-05
2.1471131e-05
2.1923974e-05
2.2463049e-05
2.3094321e-05
2.3824711e-05
2.4665789e-05
2.563282e-05
2.674357e-05
2.8016214e-05
2.9473846e-05
3.1146925e-05
3.3072915e-05
3.5298838e-05
3.7881291e-05
4.0888838e-05
4.4402735e-05
4.8521563e-05
5.3370312e-05
5.9101734e-05
6.5889698e-05
7.3952369e-05
8.3562637e-05
9.5052484e-05
0.0001088126
0.00012533022
0.00014520352
0.00016916486
0.00019810957
0.00023313437
0.0002755929
0.00032714626
0.00038984054
0.00046619197
0.00055930719
0.00067303661
0.00081216264
0.00098263447
0.0011784777
0.0011792888
0.0011799043
0.0011804353
0.0011808357
0.001181102
0.0011812227
0.0011811873
0.0011809868
0.0011806104
0.0011800395
0.001179247
0.0011781829
0.0011768
0.0011755212
0.0011744121
0.0011733664
0.0011723919
0.001171688
0.0011714376
0.0011717305
4.1594526e-07
1.0513875e-05
1.8895218e-05
1.9915175e-05
1.4593654e-05
1.9013071e-05
1.3617399e-05
1.7684319e-05
1.4796044e-05
1.9608469e-05
1.8139645e-05
2.0308826e-05
1.9335908e-05
1.92543e-05
1.8825924e-05
1.8600206e-05
1.844584e-05
1.8389678e-05
1.8419454e-05
1.8528404e-05
1.8716495e-05
1.8983064e-05
1.9326749e-05
1.9748604e-05
2.0249801e-05
2.0836265e-05
2.1514418e-05
2.2294921e-05
2.3192008e-05
2.422308e-05
2.5405708e-05
2.6761436e-05
2.8318997e-05
3.011352e-05
3.218949e-05
3.4600538e-05
3.7412174e-05
4.0702365e-05
4.4564651e-05
4.9117229e-05
5.4508938e-05
6.0907226e-05
6.852071e-05
7.7610979e-05
8.8502158e-05
0.00010157206
0.00011729204
0.00013624268
0.00015913628
0.00018684587
0.00022043956
0.00026123945
0.00031086912
0.00037133249
0.00044509632
0.00053520784
0.00064544608
0.00078051031
0.00094624826
0.0011499278
0.001179166
0.0011797014
0.0011801575
0.0011804881
0.0011806893
0.0011807496
0.0011806576
0.0011804039
0.0011799783
0.0011793625
0.001178531
0.0011774489
0.0011760708
0.0011748571
0.001173807
0.0011728179
0.0011718711
0.0011711396
0.0011710041
0.0011709895
3.5767883e-07
1.0241497e-05
1.8039118e-05
1.9973485e-05
1.4416222e-05
1.6812946e-05
1.2155916e-05
1.5484431e-05
1.338086e-05
1.7319742e-05
1.6599058e-05
1.806058e-05
1.7420803e-05
1.7195817e-05
1.6861397e-05
1.6650919e-05
1.6523293e-05
1.6479452e-05
1.6514334e-05
1.6620394e-05
1.6797962e-05
1.7047117e-05
1.7366923e-05
1.7758966e-05
1.8224369e-05
1.876906e-05
1.9399085e-05
2.0124388e-05
2.0958178e-05
2.1917445e-05
2.3019368e-05
2.4284212e-05
2.5739298e-05
2.7417747e-05
2.9361886e-05
3.1622792e-05
3.4263279e-05
3.7358691e-05
4.0998852e-05
4.5295558e-05
5.0394432e-05
5.6458206e-05
6.3688154e-05
7.2335369e-05
8.2718167e-05
9.5204494e-05
0.00011025276
0.00012842935
0.00015043013
0.00017711108
0.00020951712
0.00024894552
0.00029698976
0.00035562041
0.00042726544
0.00051492528
0.00062232256
0.00075409029
0.00091599699
0.0011152055
0.0011792163
0.0011796578
0.0011800229
0.0011802687
0.0011803906
0.0011803771
0.0011802161
0.0011798974
0.0011794115
0.0011787407
0.0011778592
0.0011767488
0.0011753829
0.0011742317
0.0011732396
0.0011723057
0.0011713839
0.0011706466
0.0011705473
0.0011703336
3.2872665e-07
1.0058475e-05
1.7358866e-05
1.9660069e-05
1.4186884e-05
1.4902055e-05
1.1542183e-05
1.366848e-05
1.2607403e-05
1.5448038e-05
1.525972e-05
1.6093368e-05
1.567475e-05
1.5364187e-05
1.5088396e-05
1.4894938e-05
1.4784466e-05
1.4748427e-05
1.4784723e-05
1.4885983e-05
1.505252e-05
1.528501e-05
1.5582785e-05
1.5947716e-05
1.6381094e-05
1.6888766e-05
1.7476441e-05
1.8153568e-05
1.8932361e-05
1.9829378e-05
2.086161e-05
2.2048305e-05
2.3415688e-05
2.4995245e-05
2.682757e-05
2.8961667e-05
3.1458126e-05
3.4390271e-05
3.784564e-05
4.1930592e-05
4.6787899e-05
5.2577345e-05
5.9495645e-05
6.7784494e-05
7.7758638e-05
8.9779663e-05
0.00010429655
0.00012186576
0.00014317116
0.00016905828
0.00020055578
0.00023894481
0.0002857989
0.0003430671
0.0004131536
0.00049902977
0.00060438282
0.00073380419
0.00089301574
0.0010891205
0.0011794337
0.0011797681
0.0011800277
0.0011801752
0.001180205
0.0011801057
0.0011798646
0.0011794704
0.001178914
0.0011781797
0.0011772393
0.0011760885
0.0011747485
0.0011736575
0.0011727217
0.0011718408
0.0011709475
0.0011702071
0.0011700473
0.0011697457
2.966272e-07
9.9489761e-06
1.6825601e-05
1.8539436e-05
1.4005893e-05
1.3157226e-05
1.152804e-05
1.2576247e-05
1.2071152e-05
1.3729058e-05
1.4044522e-05
1.4352345e-05
1.4048723e-05
1.3701947e-05
1.3460655e-05
1.328567e-05
1.318905e-05
1.3160559e-05
1.319881e-05
1.3297008e-05
1.3455047e-05
1.3674137e-05
1.3953847e-05
1.4211664e-05
1.4607858e-05
1.5075246e-05
1.5618903e-05
1.624745e-05
1.697196e-05
1.7808202e-05
1.8772946e-05
1.9884468e-05
2.1168e-05
2.2653487e-05
2.4379941e-05
2.6394501e-05
2.8755696e-05
3.1534891e-05
3.4818208e-05
3.8999751e-05
4.3664587e-05
4.9236966e-05
5.5911833e-05
6.3922914e-05
7.3582668e-05
8.524973e-05
9.9367031e-05
0.00011648503
0.0001372793
0.00016259109
0.00019343892
0.0002310957
0.000277124
0.00033346182
0.00040250253
0.00048720411
0.0005912367
0.00071917119
0.0008767089
0.00107093
0.0011797961
0.0011800119
0.001180154
0.0011801917
0.0011801185
0.0011799234
0.001179593
0.0011791147
0.0011784791
0.0011776739
0.0011766692
0.001175464
0.0011741755
0.0011731425
0.0011722602
0.0011714313
0.0011705693
0.0011698238
0.0011695987
0.0011692312
2.5983489e-07
9.8863429e-06
1.6363623e-05
1.6811604e-05
1.2552819e-05
1.1456677e-05
9.7232173e-06
1.1171808e-05
1.0218182e-05
1.2368233e-05
1.2815767e-05
1.2750636e-05
1.2496668e-05
1.2160693e-05
1.1948905e-05
1.1797987e-05
1.1718189e-05
1.1700617e-05
1.16727e-05
1.1753876e-05
1.1894507e-05
1.2094913e-05
1.2353324e-05
1.2669614e-05
1.3048681e-05
1.3494218e-05
1.4011475e-05
1.4609051e-05
1.5297443e-05
1.6091986e-05
1.7009718e-05
1.8068433e-05
1.9292941e-05
2.0712257e-05
2.2364523e-05
2.429575e-05
2.6563292e-05
2.9237369e-05
3.2403718e-05
3.61668e-05
4.065402e-05
4.602673e-05
5.2480209e-05
6.0749859e-05
7.0190403e-05
8.1615988e-05
9.5467287e-05
0.00011229259
0.00013276311
0.00015772235
0.00018818521
0.00022542473
0.00027100236
0.00032685633
0.00039538314
0.00047954445
0.00058301347
0.00071036391
0.00086730387
0.0010609286
0.0011802828
0.0011803706
0.0011803854
0.0011803041
0.0011801194
0.0011798204
0.0011793933
0.0011788242
0.0011781025
0.0011772198
0.0011761504
0.001174879
0.0011736708
0.001172694
0.0011718623
0.001171085
0.0011702587
0.0011694962
0.0011691897
0.0011687265
2.3946988e-07
9.8456297e-06
1.5870191e-05
1.4719385e-05
1.0283044e-05
1.0206316e-05
8.0431276e-06
9.5948605e-06
9.7615742e-06
1.1084332e-05
1.1580149e-05
1.1269977e-05
1.1042038e-05
1.0742129e-05
1.0559073e-05
1.0360831e-05
1.0271814e-05
1.0250096e-05
1.0288341e-05
1.0383221e-05
1.0529634e-05
1.0731153e-05
1.0985297e-05
1.1292823e-05
1.1658533e-05
1.208702e-05
1.2583649e-05
1.3157086e-05
1.3817471e-05
1.45797e-05
1.5461205e-05
1.6479565e-05
1.7659497e-05
1.90294e-05
2.0626919e-05
2.2497431e-05
2.4697629e-05
2.7297178e-05
3.0381279e-05
3.4053674e-05
3.8442378e-05
4.3706698e-05
5.0045349e-05
5.7688998e-05
6.6933258e-05
7.8145987e-05
9.257993e-05
0.00010926891
0.00012960084
0.00015442775
0.00018476785
0.00022190265
0.00026740249
0.00032321737
0.00039176101
0.0004760163
0.00057968031
0.00070735359
0.00086477795
0.0010590997
0.0011808685
0.0011808211
0.0011807018
0.0011804948
0.0011801925
0.0011797838
0.0011792548
0.0011785904
0.0011777782
0.0011768118
0.0011756808
0.0011743667
0.0011732394
0.0011723179
0.0011715338
0.0011708076
0.0011700237
0.0011692365
0.0011688369
0.0011682535
2.1904422e-07
9.8010609e-06
1.4048932e-05
1.2869338e-05
8.3134619e-06
9.086097e-06
7.2905008e-06
8.6420489e-06
9.0421074e-06
9.917952e-06
1.0361629e-05
9.9281321e-06
9.7102133e-06
9.36014e-06
9.1682343e-06
9.0472148e-06
8.9941048e-06
8.9994253e-06
9.0557828e-06
9.163931e-06
9.3179147e-06
9.5199572e-06
9.7716677e-06
1.0073153e-05
1.0429517e-05
1.0845837e-05
1.1327679e-05
1.1883943e-05
1.2524572e-05
1.3264068e-05
1.4120321e-05
1.5111029e-05
1.6261047e-05
1.7598446e-05
1.9160714e-05
2.0993025e-05
2.3151895e-05
2.5707026e-05
2.8744128e-05
3.2367607e-05
3.6705816e-05
4.1917893e-05
4.8206494e-05
5.5802773e-05
6.5005459e-05
7.6185314e-05
8.9799607e-05
0.00010638547
0.00012778189
0.00015269797
0.00018318012
0.00022052661
0.00026632746
0.00032255653
0.0003916598
0.00047665988
0.0005813
0.00071023395
0.00086926597
0.0010656281
0.0011815272
0.0011813397
0.0011810823
0.0011807457
0.0011803218
0.0011798
0.001179166
0.001178404
0.0011774999
0.0011764455
0.0011752515
0.0011739391
0.0011728856
0.0011720186
0.0011712794
0.0011706024
0.0011698671
0.0011690583
0.0011685608
0.0011680063
1.9883608e-07
9.7505522e-06
1.1142705e-05
1.0584383e-05
6.8866059e-06
8.0930103e-06
6.6591839e-06
7.7697398e-06
8.4652473e-06
8.856193e-06
9.1675626e-06
8.617263e-06
8.350531e-06
8.1074387e-06
7.966314e-06
7.8871213e-06
7.864045e-06
7.893636e-06
7.9678457e-06
8.0861561e-06
8.24708e-06
8.452378e-06
8.7040874e-06
9.0029815e-06
9.3542951e-06
9.7636351e-06
1.023692e-05
1.0783339e-05
1.1412852e-05
1.2139631e-05
1.2915513e-05
1.3880212e-05
1.5002647e-05
1.6310504e-05
1.7841087e-05
1.9639391e-05
2.1761831e-05
2.4278202e-05
2.727487e-05
3.0857226e-05
3.5155128e-05
4.0645781e-05
4.6949152e-05
5.4576187e-05
6.3828904e-05
7.5082398e-05
8.8807339e-05
0.00010555401
0.00012601631
0.00015105938
0.00018340675
0.00022128476
0.00026777056
0.00032487466
0.000395091
0.00048150178
0.00058792002
0.0007190815
0.00088088438
0.0010806798
0.0011822312
0.0011819013
0.0011815047
0.0011810372
0.0011804906
0.0011798546
0.0011791148
0.0011782548
0.0011772597
0.0011761187
0.0011748525
0.0011735974
0.0011726123
0.0011717989
0.0011711031
0.0011704711
0.0011697847
0.0011689724
0.0011683966
0.0011679159
1.8347172e-07
9.7023356e-06
8.8015551e-06
9.0202166e-06
6.1734942e-06
7.1773253e-06
6.1189051e-06
7.0115345e-06
7.8792729e-06
7.86852e-06
7.8724291e-06
7.4036298e-06
7.1867467e-06
7.0088988e-06
6.9111234e-06
6.8672198e-06
6.8720892e-06
6.921002e-06
7.0106428e-06
7.1407662e-06
7.309902e-06
7.5202764e-06
7.7748927e-06
8.0750685e-06
8.4261885e-06
8.7963356e-06
9.2598029e-06
9.7960732e-06
1.0414974e-05
1.1130209e-05
1.1958265e-05
1.2920572e-05
1.4041335e-05
1.5348388e-05
1.6879486e-05
1.8680224e-05
2.080787e-05
2.3333348e-05
2.6344984e-05
2.9950673e-05
3.4283657e-05
3.9510466e-05
4.58352e-05
5.3502708e-05
6.2820538e-05
7.4815771e-05
8.8780805e-05
0.00010584094
0.00012670312
0.00015225992
0.00018360196
0.00022416571
0.00027172757
0.0003301775
0.00040207397
0.00049058015
0.00059960424
0.00073399556
0.00089978248
0.0011044677
0.0011829534
0.0011824812
0.0011819472
0.0011813499
0.0011806818
0.0011799326
0.0011790885
0.0011781319
0.0011770484
0.0011758305
0.0011744916
0.0011733416
0.0011724203
0.0011716595
0.0011710076
0.0011704154
0.0011697696
0.0011689741
0.0011683634
0.0011679312
1.6951943e-07
9.6307396e-06
7.0116717e-06
7.9361895e-06
5.5125617e-06
6.3594986e-06
5.6552595e-06
6.3392505e-06
7.1789655e-06
6.7469274e-06
6.7039579e-06
6.3436259e-06
6.172753e-06
6.0480455e-06
5.9877149e-06
5.9743145e-06
6.00314e-06
6.071666e-06
6.1767486e-06
6.3191145e-06
6.4982466e-06
6.716513e-06
6.9479579e-06
7.2471311e-06
7.5971927e-06
8.0031268e-06
8.4731856e-06
9.0162143e-06
9.6422764e-06
1.036531e-05
1.1201998e-05
1.2173554e-05
1.330566e-05
1.4626639e-05
1.6175004e-05
1.7997376e-05
2.0152503e-05
2.2713018e-05
2.5770022e-05
2.9435078e-05
3.3845037e-05
3.9170464e-05
4.5626216e-05
5.346365e-05
6.3000316e-05
7.4631229e-05
8.8847166e-05
0.00010624155
0.0001286686
0.00015496016
0.0001872223
0.00022684816
0.00027818491
0.00033846116
0.00041261762
0.00050392177
0.00061640452
0.00075506214
0.00092609659
0.001137198
0.0011836677
0.0011830557
0.0011823884
0.0011816651
0.0011808787
0.0011800194
0.0011790742
0.0011780254
0.0011768561
0.0011755755
0.0011742401
0.0011731696
0.0011723089
0.0011715997
0.0011709938
0.0011704366
0.0011698219
0.0011690693
0.0011684862
0.0011680887
1.573204e-07
9.5044709e-06
5.6396135e-06
6.9551622e-06
4.9207502e-06
5.6319262e-06
5.2636413e-06
5.6531098e-06
6.2958137e-06
5.7742901e-06
5.6807809e-06
5.4187923e-06
5.2911924e-06
5.2109671e-06
5.1839052e-06
5.1981199e-06
5.2496134e-06
5.3369654e-06
5.4581031e-06
5.5932152e-06
5.7780507e-06
6.0022188e-06
6.2685142e-06
6.5805155e-06
6.9432837e-06
7.3622031e-06
7.8454156e-06
8.4024605e-06
9.0436494e-06
9.7831246e-06
1.0637747e-05
1.1629056e-05
1.272566e-05
1.4060675e-05
1.5626219e-05
1.7469914e-05
1.9652215e-05
2.2247522e-05
2.5349754e-05
2.907471e-05
3.3563997e-05
3.9289486e-05
4.5935113e-05
5.401396e-05
6.3854826e-05
7.5864442e-05
9.0557482e-05
0.00010855404
0.00013061363
0.00015912626
0.00019257715
0.00023368114
0.00028421617
0.00034970485
0.0004267124
0.00052153217
0.00063834912
0.00078234043
0.0009599319
0.00117905
0.0011843497
0.0011836029
0.0011828088
0.0011819652
0.0011810659
0.0011801014
0.0011790597
0.0011779253
0.0011766791
0.0011753333
0.0011740799
0.0011730817
0.001172276
0.001171617
0.0011710598
0.0011705341
0.0011699358
0.0011692464
0.0011687645
0.0011684019
1.4660853e-07
9.2891905e-06
4.6084021e-06
6.0794998e-06
4.3924539e-06
4.9870868e-06
4.9241366e-06
4.9065877e-06
5.4057242e-06
4.9095863e-06
4.7966633e-06
4.6157145e-06
4.5289995e-06
4.4871651e-06
4.4903659e-06
4.5302728e-06
4.6037417e-06
4.6915539e-06
4.823682e-06
4.9909689e-06
5.1946052e-06
5.4365079e-06
5.7201991e-06
6.0494364e-06
6.4298795e-06
6.8671785e-06
7.3695401e-06
7.9231974e-06
8.5797543e-06
9.3355808e-06
1.0207641e-05
1.1217568e-05
1.2391843e-05
1.3763769e-05
1.5373115e-05
1.7269177e-05
1.9515268e-05
2.2188723e-05
2.5387343e-05
2.9232954e-05
3.3873835e-05
3.9496823e-05
4.6327927e-05
5.4645592e-05
6.4792939e-05
7.7840296e-05
9.31327e-05
0.00011187633
0.00013486839
0.00016309222
0.00019961735
0.00024252159
0.00029528893
0.00036020535
0.00044431132
0.00054337312
0.00066541486
0.00081582971
0.0010013186
0.0011858301
0.0011849777
0.0011841042
0.0011831916
0.0011822351
0.0011812296
0.0011801664
0.0011790337
0.0011778199
0.0011765168
0.0011751454
0.0011740054
0.0011730744
0.001172319
0.0011717078
0.0011712013
0.0011707064
0.0011701112
0.0011694886
0.0011691575
0.0011688157
1.3728527e-07
8.9871044e-06
3.9611104e-06
5.3020204e-06
3.9232551e-06
4.4169118e-06
4.3848325e-06
4.2324334e-06
4.5479234e-06
4.1470028e-06
4.0407231e-06
3.9244227e-06
3.8760316e-06
3.8683259e-06
3.8996354e-06
3.9495657e-06
4.0379002e-06
4.1601647e-06
4.3156738e-06
4.5048771e-06
4.7295985e-06
4.992278e-06
5.2968617e-06
5.6473933e-06
6.0362893e-06
6.4922913e-06
7.0139066e-06
7.6106635e-06
8.2945583e-06
9.0799066e-06
9.9841691e-06
1.1029923e-05
1.2244814e-05
1.3663497e-05
1.5328571e-05
1.7291244e-05
1.9618339e-05
2.2390962e-05
2.5711091e-05
2.9707959e-05
3.4535965e-05
4.0391566e-05
4.7515703e-05
5.6199545e-05
6.6805857e-05
7.9779772e-05
9.6518767e-05
0.00011615362
0.00014024827
0.00016984653
0.00020620577
0.00025328771
0.00030867027
0.00037682509
0.00046071009
0.0005693327
0.00069749098
0.00085542742
0.00105016
0.0011864981
0.0011855334
0.0011845442
0.0011835227
0.0011824625
0.0011813586
0.0011802044
0.0011789888
0.0011777011
0.0011763535
0.0011750568
0.0011740075
0.0011731425
0.0011724348
0.0011718684
0.0011714106
0.0011709481
0.0011703539
0.0011697884
0.0011696129
0.0011693592
1.2939519e-07
8.1109138e-06
3.4937846e-06
4.6075717e-06
3.5078765e-06
3.7473468e-06
3.9098295e-06
3.6149883e-06
3.771071e-06
3.4852121e-06
3.4018382e-06
3.3370502e-06
3.3240304e-06
3.3475427e-06
3.3884584e-06
3.4720823e-06
3.5884386e-06
3.7363359e-06
3.9160155e-06
4.1286732e-06
4.3766909e-06
4.6627852e-06
4.9817801e-06
5.3537139e-06
5.7777367e-06
6.2605288e-06
6.8101382e-06
7.4364622e-06
8.1517776e-06
8.9713454e-06
9.913229e-06
1.1001024e-05
1.2263691e-05
1.3737693e-05
1.5402072e-05
1.7426786e-05
1.9829599e-05
2.2695966e-05
2.6289671e-05
3.0466017e-05
3.5516217e-05
4.1646269e-05
4.911335e-05
5.8224485e-05
6.936119e-05
8.299578e-05
9.970773e-05
0.00012020821
0.00014666962
0.00017783872
0.00021614359
0.0002632406
0.00032421351
0.00039605784
0.00048449844
0.00059918929
0.00073433295
0.00090087455
0.0011061863
0.0011870744
0.0011860052
0.0011849116
0.0011837918
0.0011826381
0.0011814449
0.0011802073
0.0011789185
0.0011775728
0.0011761985
0.0011750428
0.001174079
0.0011732781
0.0011726181
0.0011720941
0.0011716785
0.0011712485
0.0011706715
0.001170165
0.0011701397
0.0011700974
1.2318512e-07
5.9159318e-06
3.0955977e-06
3.9790131e-06
3.1496028e-06
3.1289392e-06
3.4352319e-06
3.0550703e-06
3.103105e-06
2.920332e-06
2.868006e-06
2.8458654e-06
2.8571135e-06
2.9016708e-06
2.9828556e-06
3.0962273e-06
3.2397463e-06
3.4132848e-06
3.6178738e-06
3.8551692e-06
4.1220098e-06
4.431169e-06
4.7828162e-06
5.1817069e-06
5.6335374e-06
6.1452328e-06
6.7252316e-06
7.3838412e-06
8.1337545e-06
8.9712104e-06
9.9483119e-06
1.1074964e-05
1.2381361e-05
1.390533e-05
1.5694179e-05
1.7807039e-05
2.0317001e-05
2.3315534e-05
2.6916105e-05
3.1258862e-05
3.6517787e-05
4.3216127e-05
5.1070476e-05
6.0664182e-05
7.2398761e-05
8.6773334e-05
0.0001044018
0.00012603986
0.00015401747
0.00018693607
0.00022740661
0.00027717739
0.00034169677
0.00041764383
0.0005111591
0.00062634065
0.00077551955
0.00095169666
0.0011688727
0.0011875525
0.0011863862
0.0011851998
0.0011839924
0.0011827563
0.0011814842
0.0011801716
0.0011788174
0.0011774354
0.0011761413
0.001175089
0.0011742089
0.0011734707
0.0011728606
0.0011723787
0.001171996
0.0011715931
0.0011710559
0.0011706244
0.001170712
0.0011707544
1.1831592e-07
4.4273544e-06
2.7392131e-06
3.3975524e-06
2.6926225e-06
2.6091942e-06
2.9343721e-06
2.5563462e-06
2.547909e-06
2.446405e-06
2.4291695e-06
2.4365331e-06
2.480615e-06
2.5609753e-06
2.6731066e-06
2.8144103e-06
2.9841566e-06
3.1829529e-06
3.4092189e-06
3.6699922e-06
3.9664701e-06
4.3019891e-06
4.6806183e-06
5.1073172e-06
5.5880782e-06
6.130135e-06
6.7422812e-06
7.4241104e-06
8.2067897e-06
9.0990133e-06
1.0121201e-05
1.1298719e-05
1.2663541e-05
1.4255809e-05
1.6125841e-05
1.8336324e-05
2.0965152e-05
2.4109206e-05
2.7888979e-05
3.2453939e-05
3.7989247e-05
4.4723151e-05
5.3331698e-05
6.345402e-05
7.5843406e-05
9.1027832e-05
0.00010965728
0.00013253341
0.00016064465
0.00019696046
0.00023978363
0.00029246234
0.00035729364
0.00044121272
0.00054024618
0.00066225034
0.0008204115
0.0010071449
0.0011891919
0.0011879297
0.0011866755
0.0011854074
0.0011841224
0.0011828145
0.0011814753
0.0011800993
0.0011786944
0.0011773019
0.0011761472
0.0011751874
0.0011743855
0.0011737087
0.0011731507
0.0011727125
0.0011723555
0.001171969
0.0011714797
0.0011711453
0.0011713221
0.0011714193
1.1316615e-07
3.941649e-06
2.3599893e-06
2.8597515e-06
2.3198514e-06
2.174248e-06
2.4174044e-06
2.1203396e-06
2.0990579e-06
2.0601703e-06
2.0736659e-06
2.1170761e-06
2.1983308e-06
2.3103121e-06
2.4503177e-06
2.6173466e-06
2.8116814e-06
3.0323211e-06
3.2848547e-06
3.5705877e-06
3.8924855e-06
4.2541506e-06
4.6598991e-06
5.114895e-06
5.6253493e-06
6.1987706e-06
6.8367138e-06
7.5622268e-06
8.3839944e-06
9.3191326e-06
1.0389177e-05
1.1621012e-05
1.304845e-05
1.4713987e-05
1.6671093e-05
1.8986691e-05
2.1743828e-05
2.5045392e-05
2.9019297e-05
3.3823589e-05
3.96544e-05
4.7092538e-05
5.5832165e-05
6.6517848e-05
7.960486e-05
9.5651481e-05
0.0001153455
0.00013953508
0.0001708345
0.00020768159
0.00025299541
0.00030875353
0.00037739213
0.00046626235
0.00057115965
0.00070042723
0.00086810401
0.0010661251
0.0011895365
0.0011882068
0.0011868768
0.0011855379
0.0011841849
0.001182814
0.0011814192
0.0011799936
0.0011785559
0.0011772616
0.0011762022
0.0011753265
0.0011745973
0.0011739818
0.0011734741
0.0011730817
0.0011727484
0.0011723742
0.001171934
0.0011717056
0.0011719553
0.001172055
1.0973941e-07
3.431606e-06
2.0343561e-06
2.3127271e-06
2.0146382e-06
1.8032459e-06
1.9386848e-06
1.7530792e-06
1.7492638e-06
1.7604563e-06
1.8051371e-06
1.8871273e-06
1.9996324e-06
2.1386066e-06
2.3029771e-06
2.4929849e-06
2.7085376e-06
2.9533069e-06
3.2291284e-06
3.5387263e-06
3.8853633e-06
4.272861e-06
4.7057035e-06
5.1892044e-06
5.7297438e-06
6.3307495e-06
7.008114e-06
7.7706589e-06
8.632687e-06
9.612153e-06
1.0731851e-05
1.2020259e-05
1.351322e-05
1.525572e-05
1.7304317e-05
1.97301e-05
2.2621897e-05
2.6088704e-05
3.0266575e-05
3.5322943e-05
4.1738078e-05
4.9282743e-05
5.8494649e-05
6.9765339e-05
8.3574807e-05
0.00010051427
0.00012131091
0.00014686205
0.00017988046
0.00021880458
0.00026668773
0.00032562226
0.00039819364
0.00049212476
0.00060309151
0.00073989447
0.00091738754
0.0011271655
0.0011897839
0.0011883925
0.0011869978
0.0011855992
0.0011841885
0.0011827617
0.0011813195
0.0011798704
0.0011784489
0.0011772805
0.0011763037
0.0011754964
0.0011748311
0.001174281
0.0011738176
0.0011734692
0.0011731599
0.001172802
0.0011724141
0.0011722846
0.0011725919
0.0011726695
1.0830499e-07
2.8993715e-06
1.753062e-06
1.7860823e-06
1.736148e-06
1.4874082e-06
1.5490892e-06
1.4622415e-06
1.490409e-06
1.5372612e-06
1.6208278e-06
1.7332171e-06
1.8708735e-06
2.0322036e-06
2.217485e-06
2.4278864e-06
2.66438e-06
2.9304903e-06
3.2283508e-06
3.5609524e-06
3.9317322e-06
4.3446539e-06
4.8043255e-06
5.3161796e-06
5.886724e-06
6.5238832e-06
7.2374386e-06
8.0395609e-06
8.9351995e-06
9.9595592e-06
1.1129647e-05
1.2475634e-05
1.4035532e-05
1.5857044e-05
1.7999859e-05
2.0622264e-05
2.3674451e-05
2.7337128e-05
3.1755213e-05
3.71074e-05
4.3613698e-05
5.1544578e-05
6.1234115e-05
7.309347e-05
8.7629008e-05
0.00010546482
0.00012736884
0.0001556353
0.00018897629
0.00022997761
0.00028042844
0.00034253908
0.00042300949
0.00051797496
0.0006350332
0.00077942311
0.00096672847
0.0011883942
0.0011899497
0.0011885017
0.0011870513
0.0011856016
0.0011841449
0.0011826737
0.0011811857
0.0011797122
0.0011784208
0.0011773452
0.0011764467
0.0011756959
0.0011750752
0.0011745902
0.0011741714
0.0011738594
0.0011735746
0.0011732433
0.0011729156
0.0011728634
0.0011731948
0.0011732431
1.0993176e-07
2.3682389e-06
1.5192767e-06
1.3817346e-06
1.4554115e-06
1.2238214e-06
1.2646141e-06
1.2497939e-06
1.3110356e-06
1.3922341e-06
1.5039815e-06
1.639313e-06
1.7969121e-06
1.9769075e-06
2.1805229e-06
2.4095076e-06
2.6656337e-06
2.9519394e-06
3.2709678e-06
3.625842e-06
4.0200999e-06
4.4577976e-06
4.9436439e-06
5.4831901e-06
6.0830949e-06
6.7514803e-06
7.4984076e-06
8.336472e-06
9.2815407e-06
1.0353687e-05
1.1578288e-05
1.2987479e-05
1.4621748e-05
1.6531982e-05
1.8781856e-05
2.1450765e-05
2.4637452e-05
2.8464703e-05
3.3084381e-05
3.8684387e-05
4.5496693e-05
5.3806546e-05
6.3962672e-05
7.6397003e-05
9.1640024e-05
0.00011125917
0.00013440623
0.00016284324
0.00019780297
0.00024080831
0.00029373863
0.00036228629
0.00044317703
0.00054286837
0.0006658198
0.00082551342
0.0010143092
0.001191573
0.0011900515
0.0011885542
0.0011870567
0.0011855606
0.0011840632
0.0011825642
0.0011810677
0.0011796126
0.0011784336
0.0011774429
0.0011766187
0.0011759298
0.0011753551
0.001174889
0.001174528
0.0011742425
0.0011739792
0.001173682
0.0011734222
0.0011734355
0.0011737694
0.0011737937
1.1583833e-07
1.873716e-06
1.3316262e-06
1.0871171e-06
1.3022811e-06
1.0041854e-06
1.071381e-06
1.1087839e-06
1.1965578e-06
1.304915e-06
1.4370748e-06
1.5900006e-06
1.7640973e-06
1.9605043e-06
2.1809364e-06
2.4274017e-06
2.7021853e-06
3.0076568e-06
3.3469205e-06
3.7230682e-06
4.1397124e-06
4.6009936e-06
5.1117226e-06
5.67758e-06
6.3053902e-06
7.0034922e-06
7.7822389e-06
8.6546765e-06
9.6372929e-06
1.0751038e-05
1.2022426e-05
1.3485116e-05
1.518155e-05
1.7165109e-05
1.9502594e-05
2.2277327e-05
2.5592826e-05
2.9577347e-05
3.4389436e-05
4.0224765e-05
4.76477e-05
5.6379874e-05
6.7051317e-05
8.0114886e-05
9.6127112e-05
0.00011577346
0.00013989899
0.0001695459
0.00020599656
0.00025318602
0.00030880306
0.00037728205
0.00046165571
0.00056568945
0.000700835
0.00086054263
0.0010578946
0.0011916538
0.001190101
0.0011885678
0.0011870361
0.0011855035
0.0011839661
0.0011824276
0.0011809193
0.0011795876
0.0011784812
0.0011775597
0.0011767951
0.0011761608
0.0011756352
0.0011752021
0.0011748752
0.0011746125
0.0011743677
0.0011741074
0.0011739153
0.0011739825
0.0011742979
0.0011742813
1.267587e-07
1.4991236e-06
1.1730014e-06
9.4056559e-07
9.5500453e-07
8.8032659e-07
9.4280823e-07
1.0224724e-06
1.1304358e-06
1.2577721e-06
1.4052935e-06
1.5727981e-06
1.7615098e-06
1.9729504e-06
2.2089767e-06
2.4716618e-06
2.7633259e-06
3.0865559e-06
3.4442514e-06
3.8396786e-06
4.2765484e-06
4.7591223e-06
5.292362e-06
5.8821417e-06
6.5355421e-06
7.2586565e-06
8.065974e-06
8.9693373e-06
9.9947859e-06
1.1150131e-05
1.2469215e-05
1.3987358e-05
1.5749058e-05
1.7810198e-05
2.0240663e-05
2.3127489e-05
2.6578717e-05
3.0728107e-05
3.5740877e-05
4.1820826e-05
4.9219079e-05
5.8244906e-05
6.9278839e-05
8.278701e-05
9.9345486e-05
0.00011966293
0.00014590028
0.00017679731
0.00021477597
0.00026149248
0.00031899477
0.00038982261
0.00047712661
0.00059038187
0.00072431018
0.00088977396
0.0010944215
0.0011917017
0.0011901193
0.0011885558
0.001187
0.0011854481
0.0011838963
0.0011823492
0.0011808495
0.0011796117
0.0011785679
0.0011776985
0.0011769762
0.0011763826
0.0011759185
0.0011755018
0.0011752035
0.0011749595
0.0011747338
0.0011745122
0.0011743788
0.001174479
0.0011747653
0.0011747317
1.486803e-07
1.5088883e-06
1.0125272e-06
7.1847553e-07
7.7940703e-07
7.8638516e-07
8.7012337e-07
9.7219104e-07
1.0962424e-06
1.2380398e-06
1.3987574e-06
1.5793014e-06
1.7811719e-06
2.0060018e-06
2.2556762e-06
2.5322969e-06
2.8382177e-06
3.1760742e-06
3.5488265e-06
3.9598119e-06
4.4128179e-06
4.9121863e-06
5.4629614e-06
6.0711034e-06
6.74379e-06
7.4898304e-06
8.3202125e-06
9.2488035e-06
1.0293237e-05
1.147597e-05
1.2825548e-05
1.43782e-05
1.6179623e-05
1.8287227e-05
2.077277e-05
2.3725585e-05
2.7256499e-05
3.1502585e-05
3.6633008e-05
4.2856194e-05
5.0428796e-05
6.0094196e-05
7.1474244e-05
8.5401603e-05
0.00010246926
0.00012340638
0.00014911258
0.00018069844
0.00021953635
0.00026732197
0.0003261601
0.00040234095
0.00049238914
0.00060349458
0.00074072581
0.00091042058
0.0011205079
0.0011917598
0.0011901466
0.0011885506
0.0011869658
0.0011853896
0.001183822
0.0011822788
0.0011808487
0.0011796754
0.0011786868
0.0011778628
0.0011771766
0.0011766126
0.001176151
0.0011757879
0.0011755035
0.0011752749
0.0011750688
0.0011748843
0.0011747943
0.0011749009
0.0011751427
0.00117511
1.4500711e-07
9.2309967e-07
8.2906995e-07
6.1162188e-07
6.6902553e-07
7.2933463e-07
8.3132865e-07
9.4997161e-07
1.0869278e-06
1.2411841e-06
1.413992e-06
1.6065443e-06
1.82037e-06
2.0571702e-06
2.3188712e-06
2.6076322e-06
2.9258742e-06
3.2762681e-06
3.6619106e-06
4.0861972e-06
4.5529988e-06
5.0667413e-06
5.6325555e-06
6.2564916e-06
6.9458271e-06
7.7094877e-06
8.5586057e-06
9.5072427e-06
1.0581936e-05
1.1792103e-05
1.3172817e-05
1.4761225e-05
1.6604119e-05
1.8760228e-05
2.1302892e-05
2.4323354e-05
2.7934736e-05
3.2276912e-05
3.7522483e-05
4.3884104e-05
5.1623479e-05
6.1062334e-05
7.2595922e-05
8.6711881e-05
0.00010400988
0.00012522939
0.0001512829
0.00018490617
0.00022456341
0.00027334896
0.00033341465
0.00040742999
0.00049871783
0.00061142274
0.00075072696
0.00092312655
0.0011367662