/*--------------------------------*- C++ -*----------------------------------*\
| =========                 |                                                 |
| \\      /  F ield         | OpenFOAM: The Open Source CFD Toolbox           |
|  \\    /   O peration     | Version:  2512                                  |
|   \\  /    A nd           | Website:  www.openfoam.com                      |
|    \\/     M anipulation  |                                                 |
\*---------------------------------------------------------------------------*/
FoamFile
{
    version     2.0;
    format      ascii;
    arch        "LSB;label=32;scalar=64";
    class       volScalarField;
    location    "0.143";
    object      k;
}
// * * * * * * * * * * * * * * * * * * * * * * * * * * * * * * * * * * * * * //

dimensions      [0 2 -2 0 0 0 0];

internalField   nonuniform List<scalar> 
16000
(
0.061599697
0.021405437
0.022420658
0.016527406
0.014000927
0.012676919
0.011886953
0.011413088
0.01109616
0.010880989
0.010722433
0.010604318
0.010512033
0.01043895
0.010380131
0.01033263
0.010293794
0.010261869
0.010235869
0.010214368
0.010196936
0.010182631
0.010171155
0.010162015
0.010154875
0.010149436
0.010145516
0.010142929
0.010141538
0.010141212
0.010141828
0.010143281
0.010145489
0.010148382
0.010151899
0.010155983
0.010160574
0.010165614
0.010171046
0.010176814
0.010182853
0.010189095
0.010195472
0.010201918
0.01020836
0.010214725
0.010220954
0.010226998
0.010232814
0.010238361
0.010243599
0.010248484
0.010252973
0.010257022
0.010260592
0.010263649
0.01026616
0.010268085
0.010269375
0.010269973
0.010269796
0.010268744
0.01026671
0.010263558
0.010259124
0.010253245
0.010245796
0.01023667
0.010225704
0.010212603
0.010196821
0.010177266
0.010153316
0.010130706
0.010112159
0.01009612
0.010082362
0.010081591
0.010070868
0.01009685
0.054462672
0.020049395
0.020964302
0.015979949
0.013657751
0.012476231
0.011725438
0.011300809
0.010995951
0.010798292
0.010649721
0.010540353
0.010454449
0.010386834
0.010332461
0.010288805
0.010253335
0.010224269
0.01020089
0.010181671
0.010166362
0.010153968
0.010144258
0.010136765
0.010131172
0.010127178
0.010124615
0.010123299
0.0101231
0.010123896
0.010125565
0.010128005
0.010131129
0.010134868
0.01013916
0.010143946
0.010149169
0.010154771
0.010160696
0.010166887
0.010173284
0.010179821
0.010186432
0.010193054
0.010199618
0.010206054
0.010212302
0.010218314
0.010224051
0.010229478
0.010234559
0.010239258
0.010243536
0.010247353
0.010250675
0.01025347
0.010255708
0.010257353
0.010258361
0.010258676
0.010258228
0.010256922
0.010254658
0.010251308
0.010246705
0.010240681
0.010233094
0.010223836
0.010212753
0.010199566
0.010183821
0.010164591
0.010141169
0.010119668
0.010102123
0.010086854
0.010074677
0.010070263
0.010068996
0.01009665
0.049002456
0.019081917
0.019632348
0.015418637
0.013306701
0.012250398
0.01155791
0.01117461
0.010893742
0.010714187
0.010576735
0.010476545
0.010397521
0.010335672
0.010286068
0.010246486
0.010214618
0.010188603
0.010168027
0.010151244
0.010138199
0.010127846
0.010120018
0.010114268
0.010110313
0.010107846
0.010106715
0.01010674
0.010107795
0.010109765
0.010112532
0.010115994
0.010120064
0.010124669
0.010129747
0.010135238
0.010141086
0.010147233
0.01015362
0.010160194
0.010166897
0.010173665
0.010180436
0.010187148
0.01019374
0.010200143
0.0102063
0.010212165
0.010217705
0.010222888
0.010227687
0.01023207
0.010236007
0.010239462
0.010242405
0.010244808
0.010246644
0.010247883
0.010248483
0.010248392
0.010247544
0.010245855
0.010243231
0.010239549
0.010234648
0.010228352
0.010220508
0.010211002
0.010199694
0.010186305
0.010170437
0.01015136
0.010128419
0.010108191
0.01009176
0.010077627
0.010066307
0.010060616
0.010063713
0.010086231
0.045320646
0.01842733
0.018491962
0.014915282
0.012989071
0.012046611
0.011404927
0.011060414
0.010800096
0.010636994
0.010510145
0.010418432
0.010345972
0.010289577
0.010244527
0.010208829
0.010180439
0.010157349
0.010139497
0.010125071
0.010114232
0.01010587
0.010099885
0.010095839
0.010093491
0.010092522
0.010092794
0.010094133
0.010096412
0.010099522
0.010103349
0.01010779
0.010112757
0.010118173
0.010123974
0.010130099
0.010136492
0.010143095
0.01014985
0.010156703
0.010163602
0.010170486
0.010177295
0.010183972
0.010190463
0.010196703
0.01020264
0.01020823
0.010213444
0.010218258
0.010222649
0.010226596
0.010230074
0.010233053
0.010235507
0.010237412
0.010238747
0.010239482
0.010239582
0.010238996
0.010237664
0.010235509
0.010232443
0.010228351
0.010223076
0.010216437
0.010208268
0.010198448
0.01018685
0.010173205
0.010157141
0.01013816
0.010115635
0.010096704
0.010081456
0.0100685
0.010057751
0.010051811
0.010057938
0.010073635
0.0399455
0.018035617
0.017543747
0.014449627
0.012693151
0.011854008
0.011261469
0.010952695
0.01071281
0.010565133
0.010448693
0.010365064
0.010299029
0.010247932
0.010207352
0.010175441
0.010150495
0.010130284
0.01011514
0.010103057
0.010094419
0.010088054
0.010083925
0.010081588
0.010080846
0.010081388
0.010083061
0.010085712
0.01008921
0.010093446
0.01009831
0.010103698
0.010109519
0.010115693
0.010122154
0.010128839
0.010135691
0.010142654
0.010149671
0.010156689
0.01016366
0.010170529
0.010177239
0.010183742
0.010189987
0.010195919
0.01020149
0.010206661
0.010211409
0.010215714
0.010219563
0.010222942
0.010225833
0.010228213
0.01023006
0.010231355
0.010232077
0.010232206
0.010231705
0.010230529
0.01022862
0.010225907
0.01022231
0.01021772
0.010211986
0.010204924
0.010196355
0.010186148
0.010174187
0.010160224
0.010143878
0.010124913
0.010102982
0.010085374
0.010071357
0.010059568
0.010049398
0.010043672
0.010051215
0.010062144
0.037571542
0.017872806
0.016842281
0.014022887
0.012421181
0.011674883
0.011128952
0.010852972
0.010632731
0.010499254
0.010392922
0.010316914
0.010257097
0.010211109
0.010174881
0.010146646
0.010125094
0.010107709
0.010095252
0.010085507
0.010079058
0.010074702
0.010072465
0.010071828
0.010072672
0.010074747
0.010077794
0.010081743
0.010086436
0.010091763
0.010097618
0.010103894
0.010110497
0.010117344
0.010124368
0.010131504
0.010138695
0.010145886
0.010153025
0.01016006
0.010166948
0.010173642
0.010180093
0.010186256
0.010192093
0.010197557
0.010202605
0.010207206
0.01021134
0.010214997
0.01021817
0.010220853
0.010223034
0.0102247
0.010225832
0.010226413
0.010226428
0.010225857
0.010224669
0.01022282
0.010220255
0.010216909
0.010212706
0.010207544
0.010201279
0.010193728
0.010184699
0.010174045
0.010161661
0.010147333
0.010130651
0.010111589
0.010090532
0.010074277
0.010061522
0.01005089
0.0100414
0.010036053
0.010043292
0.010051263
0.034653545
0.017883179
0.016341328
0.013631351
0.012170522
0.011508523
0.011007023
0.010760977
0.010559685
0.01043923
0.010342688
0.010273921
0.01022015
0.010179138
0.0101472
0.010122572
0.010104407
0.010089841
0.010080063
0.010072718
0.010068437
0.010066155
0.010065941
0.010066968
0.010069322
0.010072872
0.010077344
0.010082567
0.010088418
0.010094785
0.010101562
0.010108641
0.010115927
0.010123333
0.010130791
0.010138235
0.01014561
0.010152865
0.010159952
0.010166826
0.010173448
0.010179782
0.010185788
0.010191431
0.01019668
0.010201502
0.010205862
0.010209734
0.010213106
0.010215974
0.010218338
0.0102202
0.010221556
0.010222398
0.010222713
0.010222485
0.010221703
0.010220349
0.010218395
0.0102158
0.010212508
0.010208459
0.010203583
0.010197784
0.010190925
0.010182824
0.010173283
0.010162132
0.010149268
0.010134534
0.010117497
0.010098183
0.010078445
0.010063562
0.010052072
0.010042584
0.010033879
0.010028978
0.010035605
0.01004099
0.030996962
0.017997752
0.015918768
0.013272719
0.011939529
0.011354762
0.010895124
0.01067661
0.010493318
0.010385001
0.01029799
0.010236197
0.010188352
0.010152242
0.010124572
0.010103521
0.010088737
0.01007704
0.010069869
0.010065143
0.010062881
0.010062907
0.010064141
0.01006709
0.010071188
0.010076226
0.010082047
0.010088497
0.010095439
0.01010276
0.010110353
0.01011811
0.010125934
0.010133739
0.010141455
0.01014902
0.010156382
0.010163495
0.010170319
0.010176818
0.010182962
0.010188725
0.010194081
0.010199005
0.010203478
0.010207478
0.010210981
0.010213968
0.010216433
0.010218378
0.010219811
0.010220738
0.010221165
0.010221087
0.010220496
0.010219379
0.010217724
0.010215516
0.010212731
0.010209328
0.010205252
0.010200445
0.010194842
0.010188353
0.010180847
0.010172148
0.010162052
0.010150369
0.01013698
0.010121794
0.010104448
0.010084748
0.01006681
0.010053318
0.01004308
0.010034727
0.010026924
0.010022427
0.010027933
0.010030981
0.0291415
0.018150785
0.015398187
0.012943883
0.011726917
0.011212743
0.010792787
0.010599427
0.010433967
0.010336955
0.010259176
0.010204137
0.010162101
0.01013083
0.01010742
0.010089942
0.010078449
0.010069791
0.010064861
0.010062913
0.010061446
0.010064906
0.010068347
0.010072997
0.010078665
0.010085146
0.01009226
0.010099848
0.01010777
0.010115911
0.010124162
0.010132418
0.010140583
0.010148573
0.01015632
0.010163768
0.010170871
0.010177594
0.010183906
0.010189785
0.010195213
0.010200177
0.010204665
0.010208665
0.010212169
0.010215169
0.010217653
0.010219607
0.010221032
0.010221935
0.010222327
0.010222223
0.010221631
0.010220553
0.010218984
0.010216912
0.010214325
0.010211209
0.010207542
0.010203282
0.010198378
0.01019277
0.010186398
0.010179177
0.010170984
0.010161649
0.010150966
0.010138728
0.010124789
0.010109095
0.010091524
0.010071826
0.010055726
0.010043643
0.010034627
0.010027392
0.010020599
0.010016496
0.01002057
0.010021246
0.027166923
0.018277186
0.014725905
0.012642191
0.011532888
0.011083411
0.01070134
0.010530373
0.010382191
0.010295528
0.010226668
0.010178202
0.010141867
0.010115389
0.010096236
0.010082386
0.010073726
0.010068688
0.010064458
0.010067105
0.01006965
0.010073274
0.010078588
0.010084961
0.010092167
0.010100001
0.010108287
0.010116867
0.010125597
0.010134357
0.010143041
0.010151549
0.010159791
0.010167686
0.010175177
0.010182215
0.010188769
0.010194813
0.010200335
0.010205326
0.010209784
0.010213711
0.01021711
0.010219985
0.010222338
0.010224174
0.010225491
0.010226284
0.010226555
0.010226316
0.010225582
0.01022437
0.010222692
0.010220555
0.010217955
0.010214881
0.010211321
0.010207259
0.010202673
0.010197526
0.010191764
0.010185326
0.010178156
0.010170174
0.010161265
0.010151267
0.010139975
0.010127171
0.010112683
0.010096437
0.010078635
0.010059636
0.010045281
0.010034608
0.010026775
0.010020623
0.010014918
0.010011227
0.010013783
0.010013293
0.025109629
0.018364317
0.014175768
0.012366022
0.01135814
0.010966406
0.010620788
0.010469703
0.010338013
0.010261096
0.010200869
0.010158867
0.010128163
0.010106463
0.010091563
0.010081545
0.010073826
0.010074433
0.010075374
0.010077662
0.010082216
0.010088306
0.010095447
0.01010344
0.010112054
0.010121083
0.01013035
0.010139695
0.010148974
0.010158069
0.010166877
0.01017531
0.010183288
0.010190743
0.01019763
0.010203918
0.01020959
0.010214642
0.010219076
0.010222903
0.010226137
0.010228798
0.010230903
0.010232469
0.010233511
0.010234043
0.010234073
0.010233601
0.010232633
0.010231181
0.010229261
0.01022689
0.010224083
0.01022085
0.010217188
0.010213085
0.010208528
0.0102035
0.010197978
0.010191926
0.01018529
0.010178008
0.010170026
0.010161267
0.010151625
0.010140948
0.010129036
0.010115663
0.010100646
0.010083871
0.010065698
0.010048245
0.010035552
0.01002627
0.010019579
0.010014457
0.010009875
0.0100067
0.010007929
0.010006914
0.023567103
0.01843856
0.013682308
0.012115488
0.011202539
0.010861563
0.010550593
0.010417701
0.010301876
0.010234154
0.010182298
0.010146706
0.010121596
0.010104699
0.010094024
0.010088288
0.010086632
0.01008698
0.010090301
0.010095711
0.010102519
0.010110479
0.010119328
0.010128773
0.010138584
0.010148552
0.010158502
0.010168279
0.010177745
0.010186787
0.010195317
0.010203261
0.010210559
0.010217166
0.010223056
0.01022822
0.010232661
0.010236397
0.010239451
0.010241851
0.01024363
0.010244822
0.010245458
0.010245566
0.010245172
0.010244296
0.010242953
0.010241149
0.010238889
0.010236182
0.010233045
0.010229493
0.010225541
0.010221198
0.010216464
0.010211328
0.01020577
0.010199773
0.010193312
0.010186353
0.010178842
0.010170717
0.01016192
0.010152381
0.010142001
0.010130639
0.010118108
0.01010417
0.010088646
0.010071477
0.010052906
0.010037709
0.010026595
0.010018665
0.010013078
0.01000892
0.010005435
0.010002949
0.010003149
0.01000151
0.022135387
0.0184389
0.013266247
0.011889743
0.011065232
0.010769305
0.010491397
0.010374951
0.010274099
0.010215259
0.01017157
0.010142397
0.010122888
0.010110848
0.010104465
0.010102382
0.01010365
0.010107804
0.010113903
0.010121578
0.010130477
0.010140235
0.01015055
0.010161155
0.01017182
0.010182337
0.010192541
0.010202288
0.010211455
0.010219949
0.010227703
0.010234669
0.010240817
0.01024613
0.010250609
0.01025427
0.010257142
0.010259262
0.010260674
0.010261424
0.010261559
0.010261124
0.010260163
0.010258711
0.0102568
0.010254456
0.010251696
0.010248529
0.01024496
0.010240992
0.010236638
0.01023191
0.010226822
0.010221381
0.010215587
0.010209429
0.010202885
0.010195933
0.010188547
0.010180693
0.010172319
0.010163362
0.010153761
0.01014345
0.010132338
0.010120295
0.010107151
0.010092675
0.010076652
0.01005927
0.01004143
0.010028067
0.01001845
0.010011807
0.010007294
0.01000403
0.010001534
0.0099999277
0.009999725
0.0099976174
0.020866672
0.018269806
0.012880283
0.011687362
0.010945177
0.010689317
0.010443313
0.01034162
0.010255251
0.010205134
0.010169486
0.010146779
0.010132908
0.010125776
0.010123728
0.01012554
0.010130297
0.010137273
0.010145964
0.010155876
0.010166602
0.010177803
0.010189188
0.010200494
0.010211499
0.010222013
0.010231886
0.010241002
0.010249269
0.010256626
0.010263038
0.010268495
0.010273002
0.010276578
0.010279252
0.010281068
0.010282078
0.010282338
0.010281907
0.010280846
0.01027921
0.010277054
0.010274425
0.010271365
0.010267909
0.010264083
0.010259905
0.010255384
0.010250522
0.010245319
0.010239778
0.010233907
0.010227715
0.010221207
0.010214385
0.010207235
0.010199735
0.010191856
0.010183572
0.010174847
0.010165633
0.010155868
0.010145485
0.010134421
0.010122593
0.010109881
0.010096135
0.010081165
0.010064726
0.010047044
0.010031083
0.010019395
0.010011146
0.010005697
0.010002227
0.0099998035
0.0099981147
0.0099974795
0.0099976105
0.0099953321
0.019733344
0.017820398
0.012532962
0.011507584
0.010842863
0.010622127
0.01040662
0.010318604
0.010246111
0.010204739
0.010177058
0.010160891
0.010152706
0.010150516
0.01015279
0.010158364
0.010166374
0.010176162
0.010187153
0.010198887
0.010210975
0.010223079
0.01023492
0.010246255
0.01025689
0.010266669
0.010275481
0.010283251
0.010289936
0.01029552
0.010300012
0.010303443
0.010305856
0.010307306
0.010307852
0.010307558
0.010306495
0.010304732
0.010302339
0.010299383
0.010295924
0.010292019
0.010287717
0.010283059
0.01027808
0.010272804
0.010267247
0.010261416
0.01025531
0.010248924
0.01024225
0.010235291
0.010228049
0.010220526
0.010212722
0.010204625
0.01019621
0.010187447
0.010178302
0.01016874
0.010158719
0.010148178
0.010137046
0.010125256
0.010112737
0.010099381
0.010085043
0.010069599
0.010052979
0.010035537
0.010021874
0.010011728
0.010004711
0.010000335
0.0099978537
0.0099962474
0.0099951758
0.0099953967
0.0099964199
0.0099941653
0.018720021
0.017009582
0.012222664
0.011349476
0.010758001
0.010568097
0.010381983
0.010306852
0.010247798
0.010215289
0.01019555
0.010185979
0.010183481
0.010186179
0.010192644
0.010201773
0.010212726
0.010224845
0.010237591
0.010250503
0.010263208
0.010275395
0.010286822
0.010297292
0.010306664
0.01031484
0.010321767
0.010327432
0.010331849
0.010335056
0.010337109
0.01033808
0.010338046
0.010337089
0.01033529
0.01033273
0.010329488
0.010325641
0.010321259
0.010316409
0.010311151
0.010305538
0.010299616
0.010293422
0.010286987
0.010280332
0.01027347
0.010266403
0.010259126
0.01025163
0.010243899
0.010235925
0.010227703
0.01021923
0.010210504
0.010201514
0.010192236
0.010182638
0.01017268
0.010162327
0.010151537
0.010140257
0.010128415
0.010115937
0.010102756
0.01008879
0.010073903
0.010057986
0.010041288
0.010025538
0.01001376
0.010005073
0.0099991644
0.0099957258
0.0099941363
0.0099933328
0.0099927933
0.00999362
0.0099956343
0.0099943535
0.017814204
0.016071274
0.011952088
0.011213019
0.010690188
0.010528264
0.010370489
0.010307863
0.010261803
0.010238292
0.010226438
0.010223424
0.010226481
0.010233833
0.010244125
0.010256303
0.010269549
0.010283226
0.010296815
0.010309897
0.010322146
0.010333314
0.010343228
0.010351772
0.010358883
0.010364546
0.010368781
0.010371641
0.010373201
0.010373549
0.010372782
0.010371001
0.01036831
0.010364806
0.010360583
0.010355724
0.010350312
0.010344419
0.010338111
0.010331449
0.010324485
0.010317264
0.010309826
0.010302202
0.010294416
0.010286484
0.010278414
0.010270206
0.01026185
0.010253331
0.010244629
0.010235726
0.010226605
0.01021726
0.010207681
0.010197861
0.010187778
0.0101774
0.010166684
0.010155589
0.010144075
0.010132098
0.01011959
0.010106469
0.010092663
0.010078114
0.010062743
0.01004651
0.010029911
0.010016767
0.01000672
0.009999393
0.0099945057
0.0099918786
0.0099910308
0.0099909673
0.0099910242
0.0099923775
0.0099953121
0.0099962453
0.017004966
0.015305151
0.011721876
0.011098583
0.010640297
0.010504073
0.010373704
0.010323373
0.010289882
0.010275423
0.010271293
0.0102746
0.010282816
0.010294249
0.010307605
0.010321884
0.010336305
0.010350286
0.010363384
0.010375262
0.010385696
0.010394542
0.010401733
0.010407261
0.01041116
0.010413501
0.01041438
0.010413909
0.010412212
0.010409413
0.010405635
0.010400996
0.010395608
0.010389571
0.010382979
0.010375911
0.01036844
0.010360629
0.010352534
0.010344204
0.010335681
0.010326999
0.010318188
0.01030927
0.010300263
0.010291176
0.010282014
0.010272772
0.010263438
0.010253992
0.010244411
0.010234667
0.010224737
0.010214603
0.01020425
0.010193667
0.01018284
0.010171739
0.010160323
0.010148544
0.010136357
0.010123724
0.010110592
0.010096881
0.010082502
0.010067403
0.010051586
0.010035285
0.01002032
0.010009105
0.010000672
0.0099946123
0.0099906887
0.0099887806
0.009988507
0.009989031
0.0099897442
0.0099916654
0.0099951109
0.0099971477
0.016282546
0.014620224
0.0115276
0.011006817
0.010609403
0.010497353
0.010393383
0.010355404
0.010334023
0.010328475
0.010331632
0.010340614
0.010353084
0.010367438
0.010382473
0.010397282
0.010411198
0.01042376
0.010434668
0.010443734
0.010450876
0.010456094
0.010459446
0.010461032
0.010460981
0.010459439
0.010456557
0.010452488
0.010447381
0.010441378
0.010434608
0.010427188
0.010419223
0.010410806
0.010402018
0.010392926
0.010383589
0.010374056
0.010364367
0.010354559
0.010344659
0.01033469
0.010324671
0.010314616
0.010304533
0.010294426
0.010284294
0.01027413
0.010263921
0.010253645
0.010243275
0.01023278
0.010222128
0.010211291
0.010200246
0.010188977
0.01017747
0.010165704
0.010153642
0.010141237
0.010128436
0.010115195
0.010101476
0.01008722
0.010072335
0.010056761
0.010040635
0.010024593
0.010012082
0.010002534
0.0099955205
0.0099906215
0.009987615
0.0099863729
0.0099865423
0.0099874454
0.0099886994
0.009991228
0.0099950232
0.0099980057
0.015639645
0.014028551
0.011368173
0.010938616
0.010598677
0.010510509
0.010431849
0.010406362
0.010396391
0.010399088
0.010408437
0.010421664
0.010436644
0.010451929
0.0104665
0.010479651
0.010490923
0.010500062
0.010506972
0.010511657
0.010514199
0.010514736
0.010513441
0.010510503
0.010506116
0.010500467
0.010493735
0.010486087
0.010477672
0.010468627
0.010459068
0.010449098
0.010438805
0.010428263
0.010417535
0.010406671
0.010395713
0.010384692
0.010373634
0.010362559
0.010351482
0.010340414
0.010329363
0.010318332
0.010307322
0.010296332
0.010285356
0.010274383
0.0102634
0.010252385
0.010241311
0.010230145
0.010218852
0.010207396
0.010195743
0.010183869
0.010171753
0.010159379
0.010146723
0.010133746
0.010120392
0.010106603
0.010092336
0.010077564
0.010062238
0.010046291
0.010030032
0.010015829
0.010005059
0.0099969856
0.0099911843
0.0099873094
0.0099851519
0.0099845381
0.0099850866
0.0099862385
0.0099878808
0.0099909521
0.0099950162
0.0099985383
0.015070164
0.013521258
0.01124507
0.01089684
0.010610062
0.010546988
0.01049207
0.010478694
0.010478629
0.010487799
0.010501094
0.010515998
0.010530721
0.010544124
0.010555508
0.010564483
0.010570884
0.010574712
0.010576092
0.010575208
0.010572283
0.010567559
0.010561278
0.010553672
0.010544957
0.010535329
0.010524961
0.010514005
0.010502591
0.010490832
0.010478822
0.010466638
0.010454345
0.010441994
0.010429627
0.010417274
0.01040496
0.010392701
0.010380505
0.01036838
0.010356328
0.010344347
0.010332436
0.01032059
0.010308801
0.010297063
0.010285364
0.010273693
0.010262033
0.010250365
0.010238663
0.010226897
0.010215032
0.010203028
0.010190845
0.010178446
0.010165802
0.010152889
0.01013969
0.010126183
0.010112328
0.01009806
0.010083311
0.010068043
0.010052309
0.010036279
0.010020522
0.010008481
0.0099992177
0.0099923902
0.0099876083
0.0099845969
0.0099831755
0.009983125
0.0099840173
0.00998537
0.0099872979
0.0099907884
0.0099951485
0.0099989506
0.014572424
0.013090854
0.011160386
0.01088634
0.010647684
0.010610535
0.010576572
0.010573438
0.010580245
0.01059252
0.010606121
0.01061903
0.010629982
0.010638311
0.010643744
0.010646261
0.010645999
0.010643193
0.010638139
0.010631141
0.010622498
0.010612492
0.010601378
0.010589382
0.010576703
0.01056351
0.010549946
0.010536129
0.010522159
0.010508114
0.01049406
0.010480047
0.010466113
0.010452287
0.01043859
0.010425034
0.010411627
0.01039837
0.010385259
0.01037229
0.010359452
0.010346736
0.010334129
0.010321619
0.010309193
0.010296835
0.010284532
0.010272268
0.010260027
0.010247787
0.010235528
0.010223223
0.01021084
0.010198343
0.01018569
0.010172839
0.010159747
0.010146379
0.010132707
0.010118714
0.010104384
0.010089685
0.010074552
0.010058896
0.010042712
0.010026512
0.01001288
0.010002371
0.0099944402
0.0099886719
0.0099847472
0.0099824448
0.0099816126
0.0099820132
0.0099832094
0.0099847898
0.0099869875
0.009990714
0.0099952543
0.0099991115
0.014151458
0.012735725
0.011117121
0.0109117
0.010738522
0.010703226
0.010685238
0.010688122
0.010696864
0.010707366
0.010716669
0.010723472
0.01072718
0.01072766
0.010725055
0.010719657
0.010711823
0.010701928
0.010690339
0.010677392
0.010663385
0.010648576
0.010633184
0.01061739
0.010601347
0.010585178
0.010568982
0.010552838
0.010536807
0.010520936
0.010505259
0.010489801
0.010474577
0.010459595
0.010444858
0.010430363
0.010416103
0.010402068
0.010388243
0.010374614
0.010361163
0.01034787
0.010334717
0.010321683
0.010308749
0.010295895
0.010283102
0.01027035
0.010257621
0.010244894
0.010232148
0.010219362
0.010206507
0.010193555
0.01018047
0.010167211
0.010153734
0.010139993
0.010125942
0.010111547
0.010096784
0.010081646
0.010066139
0.010050282
0.010034171
0.010018417
0.010006599
0.0099974164
0.0099905919
0.0099857257
0.0099825311
0.0099808167
0.0099804375
0.0099811542
0.0099825726
0.0099843893
0.0099868968
0.0099908065
0.0099954262
0.0099992518
0.01381832
0.012456785
0.011119405
0.010971539
0.010845253
0.010822732
0.010812851
0.010815272
0.010819702
0.01082304
0.010823594
0.010820858
0.010814864
0.010805905
0.010794399
0.010780794
0.010765522
0.010748971
0.010731476
0.010713325
0.010694751
0.010675947
0.010657064
0.010638222
0.010619517
0.01060102
0.010582784
0.010564849
0.010547242
0.01052998
0.010513071
0.010496517
0.010480316
0.01046446
0.010448936
0.01043373
0.010418825
0.0104042
0.010389834
0.010375704
0.010361785
0.010348054
0.010334485
0.010321051
0.010307729
0.010294493
0.010281319
0.010268185
0.010255066
0.010241941
0.010228789
0.010215587
0.010202313
0.010188942
0.010175448
0.010161798
0.010147957
0.010133884
0.010119531
0.010104848
0.010089782
0.010074288
0.01005835
0.010042057
0.010025917
0.010012169
0.010001563
0.0099934913
0.0099875601
0.0099834349
0.0099808521
0.0099796293
0.0099796054
0.0099805382
0.0099820941
0.0099840935
0.0099868705
0.0099909229
0.0099955595
0.0099993413
0.013596443
0.012255905
0.011169559
0.011071315
0.010979398
0.010958776
0.010948122
0.010943011
0.010937246
0.010929067
0.010917904
0.010903883
0.010887412
0.010868972
0.010849037
0.010828033
0.010806319
0.010784193
0.010761893
0.010739604
0.01071747
0.010695601
0.010674075
0.010652952
0.01063227
0.010612056
0.010592324
0.01057308
0.010554322
0.010536045
0.010518238
0.010500885
0.010483969
0.010467471
0.010451368
0.010435638
0.010420254
0.010405192
0.010390423
0.01037592
0.010361655
0.010347598
0.010333721
0.010319993
0.010306386
0.010292871
0.01027942
0.010266005
0.010252599
0.010239176
0.010225712
0.010212182
0.010198563
0.010184832
0.010170967
0.010156943
0.010142736
0.010128317
0.010113655
0.010098712
0.010083446
0.01006781
0.010051783
0.010035466
0.010019545
0.010007295
0.0099977095
0.0099905009
0.0099852697
0.0099817199
0.0099796138
0.0099787734
0.009979018
0.0099801059
0.0099817606
0.0099838972
0.0099868535
0.0099909835
0.00999564
0.0099993095
0.013433169
0.012133138
0.011269307
0.011197367
0.011123733
0.011097472
0.01107681
0.011058303
0.011038521
0.011016847
0.010993354
0.010968399
0.01094242
0.01091582
0.010888939
0.010862049
0.010835361
0.010809031
0.010783176
0.010757875
0.010733182
0.010709131
0.010685739
0.010663011
0.010640945
0.010619531
0.010598753
0.010578593
0.010559028
0.010540036
0.010521592
0.010503669
0.010486241
0.010469279
0.010452754
0.010436638
0.010420901
0.010405513
0.010390444
0.010375662
0.010361137
0.010346838
0.010332734
0.010318792
0.010304981
0.010291271
0.010277629
0.010264025
0.010250429
0.01023681
0.01022314
0.01020939
0.010195532
0.010181541
0.010167392
0.01015306
0.010138524
0.010123763
0.010108756
0.010093481
0.010077915
0.010062038
0.010045878
0.010029709
0.010014899
0.010003651
0.0099948945
0.009988353
0.0099836609
0.0099805447
0.0099787844
0.0099782005
0.0099786177
0.0099797987
0.0099815258
0.0099837589
0.0099867703
0.0099907893
0.0099953118
0.009999033
0.013361377
0.012086924
0.011419728
0.011332812
0.011261948
0.011220689
0.011184354
0.01115005
0.011115976
0.011081864
0.011047811
0.011014023
0.010980708
0.010948038
0.01091614
0.010885098
0.010854966
0.010825771
0.01079752
0.010770206
0.010743815
0.01071832
0.010693695
0.010669908
0.010646925
0.010624711
0.010603231
0.010582452
0.010562336
0.010542851
0.010523961
0.010505634
0.010487836
0.010470534
0.010453696
0.01043729
0.010421283
0.010405643
0.010390338
0.010375336
0.010360606
0.010346115
0.010331832
0.010317724
0.010303759
0.010289906
0.010276133
0.010262406
0.010248695
0.010234966
0.010221187
0.010207326
0.010193351
0.010179231
0.010164934
0.010150431
0.010135697
0.010120705
0.010105435
0.010089871
0.010074
0.01005783
0.010041456
0.01002536
0.010011664
0.010001106
0.0099929702
0.0099869244
0.0099826352
0.0099798432
0.0099783514
0.0099779023
0.0099784328
0.0099796546
0.009981434
0.0099837418
0.0099867544
0.009990583
0.0099948598
0.0099986442
0.013352442
0.012059475
0.011559389
0.011453821
0.011371735
0.011313197
0.011261147
0.011213195
0.011167802
0.011124466
0.01108296
0.011043169
0.011005016
0.010968436
0.010933363
0.010899732
0.010867475
0.010836524
0.010806814
0.010778278
0.010750855
0.010724484
0.010699108
0.010674671
0.01065112
0.010628407
0.010606484
0.010585307
0.010564831
0.010545016
0.010525824
0.010507215
0.010489155
0.010471606
0.010454534
0.010437906
0.010421688
0.010405847
0.010390351
0.010375168
0.010360266
0.010345613
0.010331177
0.010316928
0.010302833
0.010288863
0.010274984
0.010261167
0.010247378
0.010233587
0.010219759
0.010205863
0.010191865
0.01017773
0.010163424
0.010148912
0.010134162
0.01011914
0.010103817
0.010088165
0.010072163
0.010055817
0.010039248
0.010023065
0.010009917
0.0099997262
0.009991924
0.0099861605
0.0099821127
0.009979523
0.0099781837
0.0099777912
0.0099784286
0.0099796849
0.0099815281
0.0099839088
0.0099869015
0.0099905285
0.0099945434
0.0099983558
0.013412157
0.012078482
0.011659066
0.011537155
0.011442466
0.011370225
0.011307107
0.011250277
0.011197905
0.011149104
0.01110331
0.01106014
0.011019308
0.010980588
0.010943793
0.010908764
0.010875362
0.010843466
0.010812968
0.01078377
0.010755785
0.010728932
0.010703137
0.010678333
0.010654458
0.010631454
0.010609266
0.010587846
0.010567145
0.010547119
0.010527726
0.010508927
0.010490682
0.010472955
0.010455711
0.010438914
0.010422531
0.010406529
0.010390874
0.010375536
0.010360482
0.010345682
0.010331104
0.010316718
0.010302494
0.0102884
0.010274408
0.010260487
0.010246607
0.010232737
0.010218846
0.010204905
0.01019088
0.01017674
0.010162451
0.010147982
0.010133301
0.010118376
0.010103179
0.010087684
0.010071872
0.010055747
0.010039411
0.010023395
0.010010022
0.0099997527
0.009991893
0.0099861063
0.0099820593
0.0099794911
0.0099781937
0.0099778357
0.0099784323
0.0099797151
0.0099816097
0.0099840598
0.0099870458
0.0099905111
0.009994317
0.009998167
0.013509039
0.012122121
0.011708172
0.011577401
0.011474552
0.011396156
0.011328235
0.011267901
0.011212884
0.01116209
0.011114769
0.011070418
0.011028658
0.0109892
0.010951807
0.010916285
0.010882471
0.010850223
0.010819418
0.010789947
0.010761715
0.010734635
0.010708628
0.010683623
0.010659555
0.010636364
0.010613994
0.010592393
0.010571514
0.010551311
0.010531742
0.010512765
0.010494343
0.010476438
0.010459015
0.010442038
0.010425474
0.01040929
0.010393454
0.010377933
0.010362697
0.010347714
0.010332954
0.010318386
0.01030398
0.010289707
0.010275535
0.010261437
0.010247381
0.010233337
0.010219276
0.010205166
0.010190975
0.010176673
0.010162225
0.0101476
0.010132764
0.010117687
0.01010234
0.010086698
0.010070747
0.010054497
0.01003808
0.010022117
0.010009299
0.0099993049
0.0099916546
0.009985994
0.0099820192
0.0099794806
0.0099781713
0.0099777881
0.009978426
0.0099796932
0.0099816037
0.0099840673
0.0099870382
0.0099904428
0.0099941673
0.0099980635
92.282357
453.42578
141.34973
12.278301
0.2714552
0.021644049
0.020655587
0.020045009
0.019358065
0.018177445
0.016952655
0.015884778
0.015032012
0.014467736
0.01406804
0.013694009
0.013326379
0.012996039
0.012716988
0.012483472
0.01228519
0.012114302
0.011965567
0.01183516
0.011720039
0.011617723
0.011526218
0.011443932
0.011369617
0.011302281
0.011241106
0.011185377
0.011134476