/*--------------------------------*- C++ -*----------------------------------*\
| =========                 |                                                 |
| \\      /  F ield         | OpenFOAM: The Open Source CFD Toolbox           |
|  \\    /   O peration     | Version:  2512                                  |
|   \\  /    A nd           | Website:  www.openfoam.com                      |
|    \\/     M anipulation  |                                                 |
\*---------------------------------------------------------------------------*/
FoamFile
{
    version     2.0;
    format      ascii;
    arch        "LSB;label=32;scalar=64";
    class       volScalarField;
    location    "0.143";
    object      Ma;
}
// * * * * * * * * * * * * * * * * * * * * * * * * * * * * * * * * * * * * * //

dimensions      [0 0 0 0 0 0 0];

internalField   nonuniform List<scalar> 
16000
(
0.62594692
0.74379031
0.6983654
0.72364623
0.70819612
0.71555978
0.70968367
0.71140161
0.70871426
0.70836302
0.70674396
0.70565678
0.70426288
0.70291179
0.70147119
0.69998398
0.69843658
0.69683158
0.69516763
0.69344441
0.69166158
0.68981906
0.68791697
0.68595573
0.68393604
0.68185893
0.6797258
0.67753841
0.67529895
0.67301
0.67067458
0.66829614
0.66587858
0.66342621
0.66094374
0.65843627
0.65590927
0.65336846
0.65081986
0.64826965
0.64572413
0.64318966
0.64067256
0.63817904
0.63571512
0.63328656
0.63089878
0.62855682
0.62626526
0.62402816
0.62184907
0.61973097
0.61767629
0.61568684
0.61376388
0.61190809
0.61011957
0.60839788
0.60674205
0.60515042
0.60362072
0.60215028
0.60073607
0.59937422
0.59806001
0.59678769
0.59555053
0.59434121
0.59315251
0.59197761
0.59080947
0.58963954
0.58845735
0.58725289
0.58602126
0.58476366
0.58342642
0.58230428
0.5803024
0.58006016
0.63041054
0.74900416
0.7018204
0.72830067
0.71200139
0.71985964
0.71351244
0.71536598
0.71248771
0.71206819
0.71036152
0.70915759
0.70767336
0.70620702
0.70465793
0.70305349
0.7013865
0.69965746
0.69786579
0.6960112
0.69409363
0.69211326
0.69007057
0.68796636
0.68580179
0.68357838
0.68129808
0.67896327
0.67657674
0.6741418
0.67166218
0.66914209
0.66658621
0.66399964
0.66138788
0.65875683
0.65611266
0.65346182
0.65081094
0.64816675
0.645536
0.64292538
0.64034143
0.63779045
0.63527843
0.63281096
0.63039316
0.62802966
0.62572454
0.62348126
0.62130271
0.61919116
0.61714827
0.61517511
0.61327217
0.61143939
0.60967618
0.60798143
0.60635355
0.60479042
0.60328925
0.60184698
0.60046021
0.5991249
0.5978362
0.59658831
0.59537443
0.59418708
0.59301876
0.59186245
0.59071109
0.58955628
0.58838748
0.58719407
0.58596918
0.58470851
0.58342129
0.58213517
0.58050201
0.57974346
0.63461488
0.75377102
0.70533647
0.73233391
0.71560645
0.72355065
0.7170584
0.71878745
0.71586167
0.71527899
0.71350662
0.7121617
0.71057324
0.7089785
0.70730408
0.70556753
0.70376463
0.70189551
0.69995986
0.69795771
0.69588932
0.69375527
0.69155647
0.68929423
0.68697024
0.68458665
0.68214607
0.67965161
0.67710688
0.67451601
0.67188365
0.66921492
0.66651546
0.66379132
0.66104895
0.65829512
0.65553689
0.65278145
0.65003609
0.6473081
0.64460464
0.64193265
0.63929877
0.63670925
0.63416984
0.63168578
0.62926167
0.62690149
0.62460857
0.62238555
0.62023441
0.61815648
0.61615245
0.61422246
0.61236605
0.61058229
0.60886973
0.60722651
0.60565034
0.60413849
0.60268767
0.60129434
0.59995473
0.59866454
0.59741879
0.59621162
0.59503623
0.59388506
0.59275049
0.59162534
0.59050261
0.5893742
0.5882297
0.5870578
0.58585073
0.58460824
0.58333932
0.58200478
0.58053631
0.57955675
0.63842616
0.75810477
0.70836985
0.73580009
0.7187187
0.72677455
0.72011907
0.7217156
0.71872799
0.71796735
0.71611488
0.71461436
0.71290476
0.71116661
0.70935054
0.70746621
0.70551184
0.70348733
0.70139278
0.69922851
0.69699518
0.6946938
0.6923258
0.68989307
0.68739797
0.68484341
0.68223284
0.67957027
0.67686031
0.67410814
0.67131949
0.66850061
0.66565824
0.66279955
0.65993202
0.65706341
0.65420164
0.65135466
0.64853036
0.64573646
0.64298035
0.64026906
0.63760908
0.63500636
0.63246614
0.629993
0.62759074
0.62526242
0.62301034
0.62083607
0.61874046
0.6167237
0.61478537
0.61292449
0.6111396
0.60942878
0.60778971
0.60621971
0.6047158
0.60327464
0.60189246
0.60056527
0.59928895
0.598059
0.59687034
0.59571711
0.59459255
0.59348911
0.59239905
0.59131509
0.59023033
0.58913704
0.58802493
0.58688207
0.58570089
0.58448383
0.58322993
0.58189513
0.58053226
0.57938112
0.64183831
0.76194255
0.71112779
0.73873736
0.72121279
0.7294225
0.72265923
0.72406056
0.72103038
0.72005765
0.7181162
0.71644272
0.71459407
0.71269753
0.71072322
0.70867548
0.70655378
0.70435811
0.70208881
0.69974658
0.69733252
0.69484823
0.69229581
0.68967793
0.68699788
0.68425957
0.68146756
0.67862708
0.67574399
0.67282479
0.66987654
0.66690684
0.66392372
0.66093558
0.65795104
0.65497887
0.65202782
0.6491065
0.64622324
0.64338598
0.64060214
0.63787849
0.63522108
0.63263516
0.63012517
0.62769465
0.62534626
0.62308182
0.62090233
0.61880801
0.61679836
0.61487226
0.61302803
0.6112635
0.60957609
0.60796288
0.60642065
0.60494593
0.60353506
0.60218413
0.60088891
0.59964506
0.59844814
0.59729349
0.59617598
0.59508982
0.59402837
0.59298416
0.59194943
0.59091684
0.58987965
0.58883054
0.58775939
0.58665412
0.58550801
0.58432308
0.58308975
0.58178143
0.58048343
0.57922685
0.64481756
0.7652111
0.713423
0.74119631
0.72338852
0.73142905
0.7245471
0.72575983
0.72267877
0.7214871
0.7194459
0.71758889
0.7155851
0.71351713
0.71136892
0.70914176
0.70683574
0.70445115
0.70198882
0.69945005
0.69683669
0.69415121
0.69139675
0.68857712
0.68569687
0.68276129
0.6797764
0.67674898
0.67368646
0.67059693
0.66748904
0.66437192
0.66125503
0.65814806
0.65506076
0.65200281
0.64898365
0.64601231
0.6430973
0.64024641
0.63746668
0.63476421
0.63214417
0.62961072
0.62716697
0.62481508
0.62255618
0.62039052
0.61831752
0.61633581
0.61444341
0.61263774
0.61091577
0.60927411
0.60770907
0.60621676
0.60479311
0.60343394
0.60213497
0.60089181
0.59969989
0.59855456
0.59745121
0.59638506
0.595351
0.59434341
0.59335582
0.59238096
0.59141112
0.59043896
0.58945791
0.58846104
0.58743854
0.58637873
0.58527559
0.58412841
0.58292341
0.58165628
0.58041198
0.57907608
0.64735136
0.76790256
0.71527814
0.74315332
0.72509677
0.73277146
0.72596126
0.72679556
0.72373236
0.72224343
0.72008411
0.71803158
0.71585153
0.71359264
0.71124797
0.70881788
0.70630312
0.70370478
0.70102453
0.69826469
0.69542825
0.69251897
0.68954139
0.68650087
0.68340364
0.68025674
0.67706806
0.67384622
0.67060059
0.66734109
0.66407816
0.66082257
0.65758523
0.65437708
0.65120884
0.64809089
0.645033
0.64204425
0.63913281
0.63630588
0.63356952
0.63092865
0.62838698
0.62594703
0.62361017
0.62137669
0.61924586
0.61721605
0.61528485
0.61344918
0.61170544
0.61004956
0.60847719
0.60698375
0.60556451
0.60421472
0.60292957
0.60170428
0.6005341
0.59941431
0.59834008
0.5973066
0.59630916
0.59534301
0.59440313
0.5934841
0.59257978
0.59168316
0.59078667
0.58988304
0.58896589
0.58802862
0.5870619
0.58605503
0.58500218
0.58389833
0.58272948
0.58151458
0.58031971
0.57892584
0.64947716
0.77004323
0.7167249
0.74464574
0.72638669
0.73376453
0.72683357
0.72758744
0.72407309
0.72233628
0.72002427
0.7177493
0.71535773
0.71287553
0.71030102
0.70763496
0.70487893
0.70203507
0.69910624
0.69609607
0.6930091
0.68985076
0.68662744
0.68334649
0.68001625
0.67664597
0.67324576
0.66982651
0.66639973
0.66297741
0.65957186
0.65619545
0.65286047
0.64957883
0.64636188
0.64322021
0.64016341
0.63719995
0.63433704
0.63158052
0.62893484
0.626403
0.62398666
0.62168615
0.61950059
0.61742802
0.61546553
0.61360942
0.61185532
0.61019839
0.6086334
0.6071549
0.60575729
0.60443495
0.6031823
0.60199387
0.6008643
0.5997884
0.59876112
0.59777754
0.59683276
0.59592194
0.59504041
0.59418352
0.59334645
0.59252409
0.59171066
0.59089954
0.59008342
0.58925515
0.5884085
0.58753711
0.58663242
0.58568518
0.58468894
0.58363349
0.58250868
0.58135561
0.58020844
0.57877059
0.65125488
0.77165298
0.71770063
0.74565958
0.72697955
0.73368061
0.72688466
0.72683246
0.72377247
0.72170616
0.71919208
0.71665898
0.71401398
0.71126961
0.70842663
0.70548679
0.70245269
0.69932784
0.69611667
0.69282465
0.6894583
0.68602531
0.68253447
0.67899569
0.67541996
0.6718192
0.66820618
0.66459433
0.66099753
0.65742988
0.65390548
0.65043812
0.64704102
0.64372658
0.64050614
0.63738974
0.63438595
0.63150178
0.62874253
0.62611187
0.62361175
0.62124258
0.6190033
0.61689153
0.61490375
0.61303548
0.61128147
0.60963586
0.60809239
0.60664451
0.60528556
0.60400886
0.60280781
0.60167598
0.60060715
0.59959538
0.59863501
0.59772063
0.5968471
0.59600949
0.59520298
0.59442285
0.59366463
0.59292384
0.59219598
0.59147632
0.59075953
0.59003945
0.58930915
0.58856169
0.58779087
0.58699052
0.58615318
0.58527137
0.58433698
0.58333449
0.58226114
0.58117723
0.58007646
0.57860973
0.65267023
0.7726975
0.71813148
0.74593535
0.72685087
0.7331532
0.72642237
0.72592296
0.72264537
0.72023198
0.71746681
0.71463953
0.71169836
0.70865005
0.70549677
0.70224195
0.69888982
0.6954459
0.69191685
0.68831067
0.68463666
0.68090547
0.67712902
0.67332045
0.66949397
0.66566466
0.66184828
0.65806099
0.65431903
0.65063844
0.64703472
0.64352249
0.64011518
0.63682475
0.63366149
0.63063377
0.62774801
0.62500859
0.62241787
0.61997633
0.61768265
0.61553391
0.61352585
0.61165301
0.60990903
0.60828684
0.6067789
0.60537733
0.60407417
0.60286146
0.60173137
0.60067631
0.599689
0.59876251
0.59789028
0.5970662
0.59628453
0.5955399
0.59482728
0.59414192
0.59347925
0.59283484
0.59220449
0.59158407
0.59096942
0.59035625
0.58973979
0.58911441
0.58847367
0.58781091
0.58711987
0.58639449
0.58562877
0.58481701
0.58394851
0.58300307
0.58198839
0.5809783
0.5799208
0.57844226
0.65365828
0.77306579
0.71794375
0.74469569
0.72598055
0.73168175
0.72509096
0.72396691
0.72060008
0.71780407
0.71473005
0.7115631
0.7082762
0.70487528
0.70136401
0.69774809
0.69403424
0.69023078
0.68634756
0.68239602
0.67838918
0.67434157
0.67026906
0.6661887
0.66211847
0.65807696
0.65408306
0.65015553
0.64631263
0.64257169
0.63894874
0.6354581
0.63211213
0.62892092
0.62589219
0.62303121
0.62034078
0.61782142
0.61547144
0.61328724
0.61126356
0.60939372
0.60766998
0.60608376
0.60462593
0.60328703
0.60205752
0.60092789
0.59988886
0.59893145
0.59804712
0.59722775
0.59646577
0.5957541
0.5950862
0.59445604
0.59385809
0.59328725
0.5927388
0.59220837
0.59169176
0.59118497
0.59068421
0.59018573
0.58968584
0.58918073
0.58866619
0.58813724
0.58758805
0.58701226
0.58640347
0.58575575
0.58506477
0.58432631
0.58352641
0.58264191
0.58169317
0.58075948
0.57973968
0.57826824
0.65413772
0.77261506
0.71703442
0.74286885
0.72456353
0.72934716
0.72282299
0.72110302
0.71750274
0.7142871
0.71083915
0.70727713
0.70358746
0.69977808
0.69585506
0.69182733
0.68770525
0.68350117
0.67922935
0.67490592
0.67054874
0.66617719
0.66181192
0.65747449
0.65318697
0.64897147
0.64484968
0.64084229
0.63696853
0.63324567
0.62968859
0.62630952
0.62311774
0.62011954
0.61731823
0.61471425
0.61230541
0.61008715
0.60805291
0.60619445
0.60450227
0.60296589
0.60157423
0.60031591
0.59917943
0.59815347
0.597227
0.59638942
0.5956307
0.59494139
0.59431267
0.59373641
0.59320512
0.59271195
0.59225069
0.5918157
0.59140189
0.59100464
0.59061973
0.59024328
0.58987164
0.58950133
0.58912905
0.58875153
0.58836555
0.58796784
0.58755477
0.58712207
0.58666462
0.5861764
0.58565087
0.5850823
0.58446796
0.58380444
0.58307445
0.58225477
0.58137917
0.58052262
0.57953253
0.57809162
0.65405778
0.77127702
0.71528006
0.74023404
0.72220111
0.7259779
0.7195125
0.71711219
0.71320874
0.70952099
0.70562511
0.70160057
0.69744141
0.69315946
0.68876483
0.68427116
0.67969408
0.67505161
0.67036395
0.66565328
0.6609435
0.65625977
0.6516281
0.64707479
0.64262576
0.63830593
0.63413853
0.63014451
0.62634194
0.6227456
0.61936669
0.6162127
0.61328741
0.61059107
0.60812069
0.6058704
0.60383191
0.60199494
0.60034772
0.59887739
0.59757046
0.59641312
0.59539156
0.59449225
0.59370209
0.5930086
0.59240001
0.59186531
0.59139432
0.59097769
0.59060688
0.59027414
0.5899725
0.58969567
0.58943804
0.58919461
0.58896092
0.58873301
0.58850732
0.58828056
0.5880497
0.58781189
0.58756436
0.58730439
0.58702928
0.58673624
0.58642227
0.58608384
0.5857166
0.58531492
0.58487222
0.58438314
0.5838461
0.58325746
0.5825974
0.58184647
0.58105046
0.58026918
0.57930207
0.57791069
0.65339741
0.76894864
0.71261992
0.73654169
0.71881752
0.72147837
0.71498561
0.71186159
0.70753767
0.70330666
0.69887642
0.6943083
0.68960263
0.68477695
0.6798477
0.67483532
0.66976277
0.66465563
0.6595417
0.65445065
0.64941338
0.64446139
0.639626
0.63493746
0.63042412
0.62611153
0.62202178
0.61817282
0.61457816
0.61124662
0.60818241
0.60538536
0.60285126
0.6005724
0.59853816
0.59673556
0.5951499
0.59376529
0.5925652
0.59153286
0.59065164
0.58990533
0.58927842
0.58875619
0.58832488
0.58797172
0.58768499
0.587454
0.58726905
0.58712142
0.58700331
0.58690777
0.58682865
0.58676051
0.58669857
0.58663866
0.5865771
0.58651069
0.58643661
0.58635227
0.58625531
0.58614352
0.58601474
0.5858668
0.58569752
0.58550462
0.58528569
0.58503793
0.58475776
0.58444004
0.58407843
0.5836681
0.58320784
0.58269243
0.5821012
0.58142298
0.58071196
0.58000069
0.57905068
0.57772748
0.65208393
0.76544454
0.70901429
0.73164788
0.71424521
0.71566138
0.70904103
0.70512268
0.70025246
0.69538476
0.69032018
0.68511541
0.67977916
0.67433716
0.66881502
0.66324255
0.65765237
0.65207967
0.64656151
0.64113604
0.63584144
0.63071485
0.62579115
0.62110185
0.61667408
0.6125298
0.60868524
0.60515075
0.60193083
0.59902444
0.59642557
0.59412393
0.59210569
0.59035429
0.58885122
0.58757672
0.58651044
0.58563192
0.5849211
0.5843586
0.583926
0.58360601
0.5833826
0.583241
0.58316779
0.58315079
0.58317909
0.58324294
0.58333369
0.58344372
0.58356631
0.58369563
0.58382659
0.58395479
0.58407644
0.58418828
0.58428754
0.58437182
0.58443908
0.58448746
0.58451528
0.58452102
0.58450311
0.58445995
0.58438986
0.58429106
0.58416169
0.58399963
0.58380199
0.58356426
0.5832808
0.58294747
0.58256237
0.58211742
0.58159319
0.58099119
0.5803696
0.57972126
0.57878229
0.57754647
0.65005625
0.76051873
0.70455746
0.72537834
0.70830761
0.70830959
0.70141209
0.69660699
0.6910402
0.68541883
0.67960771
0.67366731
0.66761845
0.66149802
0.65534403
0.64919866
0.64310676
0.637115
0.63127053
0.62561945
0.62020521
0.61506705
0.61023861
0.60574684
0.60161135
0.59784409
0.59444956
0.59142525
0.58876243
0.58644713
0.58446115
0.58278313
0.58138957
0.58025575
0.57935646
0.57866673
0.57816228
0.57781994
0.57761789
0.57753587
0.57755524
0.57765905
0.57783198
0.5780603
0.57833179
0.57863566
0.57896241
0.57930375
0.57965248
0.58000239
0.58034812
0.5806851
0.58100948
0.58131799
0.5816079
0.58187693
0.58212319
0.58234514
0.58254148
0.5827111
0.58285299
0.58296626
0.58304995
0.583103
0.58312424
0.58311236
0.583066
0.5829836
0.58286285
0.58270003
0.58249067
0.5822315
0.58191897
0.58154129
0.58108216
0.58055852
0.58002879
0.57943865
0.57850842
0.57737008
0.64725229
0.75380293
0.69893287
0.71747671
0.70068617
0.69908972
0.6917228
0.685909
0.67948279
0.67297791
0.66630746
0.65954106
0.6527166
0.64588653
0.63910538
0.63243103
0.62592247
0.61963774
0.61363173
0.6079539
0.60264639
0.59774258
0.5932661
0.58923063
0.58564014
0.58248965
0.5797664
0.57745117
0.57551973
0.57394429
0.57269479
0.57174007
0.57104885
0.57059051
0.57033568
0.57025665
0.57032764
0.57052498
0.57082714
0.57121473
0.57167042
0.57217884
0.57272648
0.57330148
0.57389356
0.57449382
0.57509463
0.57568947
0.57627282
0.57684004
0.57738727
0.57791131
0.57840953
0.57887982
0.57932052
0.5797303
0.58010816
0.58045334
0.58076527
0.58104352
0.58128774
0.5814976
0.58167273
0.58181259
0.58191649
0.58198359
0.58201295
0.58200342
0.58195317
0.58185937
0.58171911
0.58153006
0.58128653
0.58097318
0.58057809
0.58013264
0.57969198
0.57915878
0.57824695
0.57718027
0.64355858
0.74474907
0.69169598
0.70751293
0.69094225
0.68753465
0.67947021
0.67251079
0.66506048
0.65754305
0.6499152
0.64226233
0.6346467
0.6271422
0.61982357
0.61276519
0.60603746
0.59970367
0.59381732
0.58842005
0.58354048
0.57919394
0.575383
0.57209871
0.56932228
0.56702702
0.56518038
0.56374584
0.56268468
0.56195744
0.56152516
0.56135023
0.5613971
0.56163268
0.56202663
0.5625514
0.56318226
0.56389723
0.56467687
0.56550417
0.56636431
0.56724449
0.56813372
0.5690226
0.56990319
0.57076879
0.57161384
0.57243373
0.5732247
0.57398373
0.57470841
0.57539689
0.57604775
0.57665999
0.57723293
0.57776615
0.57825945
0.5787128
0.57912629
0.57950011
0.57983447
0.5801296
0.58038562
0.58060248
0.58077996
0.58091767
0.58101506
0.58107123
0.58108469
0.5810536
0.58097667
0.5808524
0.58067315
0.58042152
0.5800908
0.57972186
0.57936054
0.57887756
0.57799511
0.57700994
0.63872688
0.73314751
0.68232043
0.69492086
0.67848898
0.67307041
0.664038
0.655778
0.64714548
0.63850654
0.62986956
0.62134517
0.61302665
0.60501175
0.59739226
0.59025062
0.58365574
0.57766019
0.57229872
0.56758806
0.56352798
0.5601032
0.55728598
0.55503892
0.55331784
0.55207441
0.55125842
0.55081968
0.55070946
0.55088156
0.55129296
0.55190427
0.55267988
0.55358796
0.55460032
0.55569225
0.55684221
0.55803161
0.55924445
0.56046713
0.5616881
0.56289766
0.56408773
0.56525162
0.56638386
0.56748005
0.56853666
0.56955099
0.57052097
0.57144509
0.57232234
0.5731521
0.57393406
0.57466821
0.57535476
0.5759941
0.57658675
0.57713331
0.57763446
0.57809089
0.57850336
0.57887252
0.57919893
0.57948301
0.57972498
0.57992488
0.58008247
0.58019706
0.58026748
0.58029275
0.58027295
0.58020697
0.58008598
0.57989317
0.57962803
0.57933456
0.57904111
0.57859645
0.5777505
0.57686604
0.63238409
0.72013247
0.67030812
0.6790769
0.66258806
0.65496008
0.64464352
0.63491485
0.62498457
0.61519798
0.6056269
0.59641205
0.5876735
0.57952117
0.57204524
0.56531309
0.55936713
0.55422495
0.54988117
0.54631057
0.54347203
0.54131272
0.53977215
0.53878584
0.53828825
0.53821526
0.53850579
0.53910301
0.53995499
0.54101499
0.54224147
0.54359793
0.54505257
0.54657794
0.54815051
0.54975028
0.55136032
0.55296645
0.55455686
0.5561218
0.55765329
0.55914488
0.56059143
0.56198893
0.56333431
0.56462531
0.56586034
0.56703839
0.56815895
0.56922188
0.57022737
0.5711759
0.57206813
0.57290492
0.57368723
0.57441614
0.57509277
0.57571829
0.57629386
0.57682063
0.57729973
0.57773223
0.57811905
0.57846099
0.57875868
0.57901256
0.57922269
0.57938859
0.57950944
0.57958506
0.5796162
0.57960146
0.57953166
0.57939355
0.57919431
0.57897584
0.57874134
0.57832245
0.57751729
0.57675711
0.62417444
0.70308655
0.65484538
0.65909668
0.64219376
0.63215314
0.62026522
0.60897438
0.59778883
0.58704641
0.57687716
0.56743668
0.5588441
0.55118778
0.54451986
0.53885776
0.53418719
0.53046735
0.52763702
0.52562087
0.52433531
0.52369354
0.5236095
0.52400084
0.52479086
0.52590969
0.52729479
0.528891
0.53065026
0.53253113
0.53449821
0.53652149
0.53857573
0.54063987
0.54269644
0.54473107
0.54673208
0.54869001
0.55059735
0.5524482
0.55423804
0.55596348
0.55762214
0.55921242
0.56073338
0.56218469
0.56356643
0.56487908
0.56612344
0.56730054
0.56841161
0.56945801
0.57044124
0.57136286
0.57222449
0.57302775
0.57377429
0.57446568
0.57510354
0.57568935
0.5762246
0.57671062
0.57714866
0.57753984
0.57788514
0.57818531
0.57844069
0.57865111
0.57881628
0.57893664
0.57901295
0.5790428
0.57901718
0.57892829
0.57879156
0.57864475
0.57846549
0.57807253
0.57731425
0.57668256
0.61346777
0.68107847
0.63451481
0.63359273
0.61585229
0.60329297
0.58976861
0.57709681
0.56504687
0.55392905
0.54388711
0.53504344
0.52746235
0.52115958
0.51610581
0.51223573
0.50945752
0.50766259
0.5067341
0.50655407
0.50700859
0.50799141
0.50940604
0.51116666
0.51319831
0.51543636
0.51782583
0.52032032
0.52288111
0.5254761
0.52807889
0.53066795
0.53322585
0.53573865
0.53819528
0.54058711
0.54290753
0.5451516
0.54731577
0.54939762
0.5513957
0.55330933
0.55513846
0.55688356
0.55854552
0.56012556
0.56162518
0.56304608
0.56439013
0.5656593
0.56685565
0.5679813
0.56903838
0.57002902
0.57095536
0.57181948
0.57262342
0.57336911
0.57405849
0.57469335
0.57527541
0.57580626
0.57628738
0.57672014
0.57710577
0.57744527
0.57773924
0.57798792
0.57819167
0.57835143
0.57846758
0.5785365
0.57854983
0.57850514
0.57842388
0.57833804
0.57820804
0.5778569
0.57717544
0.57663393
0.59910507
0.65203213
0.6074539
0.60084355
0.58199125
0.56704837
0.55232017
0.53898404
0.52699688
0.51658109
0.5078073
0.50068977
0.49517358
0.4911546
0.48849343
0.48703111
0.48660193
0.48704352
0.4882037
0.4899446
0.49214458
0.49469855
0.49751722
0.50052576
0.50366219
0.50687568
0.51012488
0.51337651
0.51660393
0.51978608
0.52290647
0.52595237
0.5289141
0.5317845
0.53455845
0.53723248
0.53980444
0.54227331
0.54463888
0.54690169
0.5490628
0.55112373
0.55308635
0.55495278
0.55672537
0.55840659
0.55999903
0.56150536
0.56292828
0.56427049
0.56553472
0.56672362
0.56783985
0.56888598
0.56986455
0.57077797
0.5716286
0.57241867
0.57315035
0.57382567
0.57444655
0.57501476
0.57553198
0.57599974
0.57641945
0.57679227
0.57711902
0.57740039
0.57763738
0.57783129
0.57798204
0.57808538
0.57813445
0.57813133
0.5780992
0.57806083
0.57796558
0.57765592
0.57706787
0.57662753
0.57921272
0.61364138
0.57150886
0.55911548
0.53967057
0.5227677
0.5080019
0.49543566
0.48503193
0.476832
0.47073204
0.46656686
0.46412011
0.46315406
0.46342867
0.4647166
0.46681194
0.46953457
0.47273099
0.4762731
0.48005576
0.48399379
0.48801901
0.49207738
0.49612649
0.50013339
0.50407275
0.5079254
0.51167704
0.51531731
0.51883892
0.52223704
0.5255088
0.52865283
0.53166897
0.53455802
0.53732146
0.53996137
0.54248024
0.54488087
0.54716632
0.54933981
0.55140465
0.55336424
0.55522201
0.55698139
0.5586458
0.56021862
0.56170317
0.56310271
0.56442043
0.56565942
0.5668227
0.56791318
0.56893368
0.56988689
0.57077539
0.57160163
0.57236798
0.57307664
0.57372969
0.57432906
0.57487656
0.57537386
0.57582248
0.57622366
0.57657842
0.57688785
0.57715338
0.57737643
0.57755654
0.57768973
0.57777172
0.57780848
0.5778218
0.57782284
0.57775255
0.57747742
0.57698379
0.57668993
0.55125161
0.56347104
0.52539238
0.50711309
0.48656274
0.47123338
0.45839971
0.44867263
0.44177733
0.43746644
0.43538661
0.4351706
0.43645866
0.43892432
0.44228412
0.44630071
0.45078056
0.45556911
0.46054493
0.46561394
0.47070411
0.47576094
0.48074375
0.48562257
0.4903758
0.49498825
0.49944972
0.50375375
0.50789681
0.51187757
0.51569634
0.5193547
0.52285516
0.5262009
0.5293956
0.53244328
0.53534819
0.53811474
0.5407474
0.54325068
0.54562907
0.54788703
0.55002894
0.55205912
0.55398178
0.55580104
0.55752089
0.55914523
0.56067783
0.56212233
0.56348226
0.56476101
0.56596187
0.56708797
0.56814235
0.56912789
0.57004731
0.57090327
0.57169825
0.57243461
0.57311454
0.57374011
0.57431324
0.57483571
0.57530908
0.57573471
0.5761138
0.57644768
0.57673799
0.57698596
0.57719087
0.57734961
0.5774608
0.57753309
0.57758521
0.57761913
0.57757614
0.57735115
0.57695626
0.5767323
0.51114786
0.49892916
0.4618647
0.44413618
0.42686928
0.414832
0.40668322
0.40221058
0.40074541
0.4016985
0.40449841
0.40865919
0.41378084
0.41954797
0.42571805
0.43210868
0.43858496
0.44504868
0.45142944
0.45767772
0.46375953
0.46965229
0.47534189
0.48082034
0.48608416
0.49113306
0.4959691
0.50059592
0.50501833
0.50924187
0.51327256
0.51711671
0.52078076
0.5242712
0.52759444
0.53075683
0.53376457
0.53662369
0.53934007
0.54191939
0.54436715
0.54668864
0.54888901
0.55097316
0.55294587
0.55481171
0.55657507
0.55824019
0.55981114
0.56129182
0.56268599
0.56399725
0.56522904
0.56638467
0.56746731
0.56847996
0.56942548
0.57030662
0.57112598
0.571886
0.57258901
0.57323716
0.57383249
0.57437684
0.57487186
0.57531901
0.57571967
0.57607535
0.57638764
0.57665749
0.57688417
0.5770657
0.5772029
0.57730485
0.57738554
0.57744073
0.57741926
0.57724703
0.57695837
0.57684304
0.45013175
0.41764678
0.38811305
0.37341419
0.36271774
0.35807572
0.35764702
0.36051486
0.36568226
0.37239277
0.38006438
0.38827673
0.39673293
0.40522882
0.41362697
0.42183723
0.42980248
0.43748842
0.44487641
0.4519585
0.45873389
0.46520654
0.47138353
0.4772738
0.48288745
0.48823517
0.49332781
0.49817622
0.502791
0.50718247
0.51136057
0.51533481
0.5191143
0.52270772
0.52612333
0.529369
0.53245222
0.53538009
0.5381594
0.5407966
0.54329782
0.54566893
0.54791551
0.5500429
0.55205619
0.55396026
0.55575974
0.55745909
0.55906257
0.56057425
0.56199801
0.56333758
0.56459653
0.56577824
0.56688598
0.56792282
0.56889171
0.56979545
0.57063672
0.57141804
0.57214181
0.57281026
0.5734255
0.57398946
0.57450388
0.57497035
0.57539041
0.57576566
0.57609758
0.57638697
0.57663345
0.57683632
0.57699766
0.57712509
0.57722713
0.5772965
0.577295
0.57717801
0.5769849
0.576913
0.35516343
0.32154918
0.30407307
0.29973364
0.3012279
0.30759168
0.31682905
0.32768402
0.3392864
0.35109077
0.36276506
0.37411614
0.38503818
0.39547939
0.40542098
0.41486383
0.42382035
0.43230927
0.44035248
0.44797313
0.45519441
0.46203892
0.4685282
0.47468263
0.4805213
0.48606202
0.49132138
0.49631479
0.50105656
0.50556
0.50983749
0.51390056
0.51775993
0.52142565
0.52490711
0.52821309
0.53135185
0.53433116
0.53715833
0.53984026
0.54238349
0.5447942
0.54707823
0.54924117
0.55128829
0.55322464
0.555055
0.55678396
0.55841586
0.55995487
0.56140496
0.56276992
0.56405338
0.56525877
0.5663894
0.56744839
0.56843872
0.56936323
0.57022465
0.57102553
0.5717683
0.57245526
0.57308856
0.5736702
0.57420202
0.57468572
0.57512296
0.57551535
0.57586427
0.57617058
0.57643446
0.5766564
0.57683891
0.57698728
0.57710546
0.57718654
0.57720705
0.57714456
0.57702827
0.57698238
0.21638274
0.21509201
0.22056394
0.23407004
0.25141544
0.26982871
0.28809693
0.30558234
0.32205842
0.33746421
0.35182612
0.36520532
0.37767596
0.38931355
0.40018997
0.41037132
0.41991735
0.42888158
0.43731176
0.44525039
0.45273537
0.4598005
0.46647601
0.47278901
0.47876387
0.48442257
0.48978499
0.49486921
0.49969165
0.50426734
0.50861004
0.51273241
0.51664611
0.52036194
0.52388991
0.52723933
0.53041887
0.53343667
0.53630032
0.53901698
0.54159337
0.54403586
0.54635043
0.54854279
0.55061831
0.55258212
0.55443908
0.55619383
0.55785077
0.55941412
0.56088786
0.56227584
0.5635817
0.5648089
0.56596078
0.56704045
0.56805092
0.56899504
0.56987554
0.57069499
0.57145583
0.57216038
0.57281082
0.57340917
0.57395733
0.57445709
0.57491015
0.57531809
0.57568224
0.57600353
0.57628274
0.57652105
0.57672084
0.57688507
0.57701445
0.57710404
0.57714523
0.57713853
0.57707108
0.57703749
0.091790852
0.12180335
0.15927564
0.19297755
0.2231287
0.24966497
0.27320766
0.29422545
0.31313577
0.33026573
0.34587899
0.36018666
0.37336003
0.38553927
0.39684028
0.40735976
0.41717917
0.42636764
0.43498435
0.44308028
0.45069967
0.45788114
0.46465862
0.47106206
0.47711804
0.48285029
0.48828006
0.49342651
0.49830694
0.50293705
0.50733119
0.51150244
0.51546283
0.51922347
0.52279458
0.52618568
0.5294056
0.53246258
0.53536434
0.53811811
0.54073069
0.54320848
0.54555753
0.54778356
0.54989198
0.55188795
0.55377634
0.5555618
0.55724877
0.55884144
0.56034385
0.56175982
0.56309301
0.5643469
0.56552481
0.56662988
0.5676651
0.56863333
0.56953729
0.57037954
0.57116253
0.57188856
0.5725598
0.57317828
0.57374591
0.57426451
0.57473576
0.5751612
0.5755421
0.57587949
0.57617437
0.57642813
0.57664269
0.57681987
0.57695986
0.57706002
0.57711589
0.57712622
0.57710132
0.5770674
0.012324551
0.28495836
0.46703748
0.51773253
0.52745425
0.52747608
0.52748483
0.5290978
0.5309919
0.53280723
0.53449307
0.53614225
0.53769493
0.53921899
0.5407241
0.54221956
0.54370589
0.54518576
0.54666117
0.54813275
0.54960051
0.55106409
0.55252283
0.55397584
0.55542205
0.55686021
0.55828899
0.55970694
0.56111258
0.56250437
0.5638807
0.56523997
0.56658053
0.5679007
0.56919879
0.57047307
0.57172181
0.57294325
0.5741356
0.57529708
0.57642586
0.57752013
0.57857803
0.57959773
0.58057738
0.58151512
0.58240913
0.58325763
0.58405886
0.58481114
0.58551287
0.58616253
0.58675871
0.58730013
0.58778565
0.58821425
0.58858517
0.58889775
0.58915161
0.58934637
0.58948141
0.58955655
0.58957203
0.58952817
0.58942461
0.58926101
0.5890342
0.58874489
0.58838175
0.58796105
0.5874397
0.58690092
0.5861677
0.58554574
0.58448681
0.58394074
0.58237386
0.58205493
0.57994885
0.57977854
0.047287505
0.36927122
0.52240888
0.54932967
0.54944773
0.54690698
0.54614079
0.54641821
0.54665815
0.54695744
0.54735716
0.54790803
0.54857159
0.54931756
0.55012015
0.55097564
0.551879
0.55282761
0.55381729
0.55484352
0.55590217
0.55698934
0.55810128
0.55923433
0.56038496
0.56154972
0.56272531
0.56390848
0.56509609
0.56628512
0.56747259
0.56865562
0.56983143
0.57099726
0.57215045
0.57328837
0.57440847
0.57550823
0.57658517
0.57763687
0.57866092
0.57965498
0.58061672
0.58154386
0.58243416
0.58328543
0.58409554
0.58486244
0.58558417
0.58625885
0.58688474
0.58746021
0.58798376
0.58845408
0.58887001
0.58923055
0.58953496
0.58978267
0.58997341
0.59010686
0.59018253
0.59020038
0.5901608
0.59006416
0.58991025
0.58969865
0.58942652
0.58909398
0.58869119
0.58823156
0.58767783
0.58710204
0.58634693
0.5856893
0.58462287
0.58403326
0.58247322
0.58212305
0.57998776
0.57985793
0.094160026
0.44119466
0.54497692
0.5579436
0.55585044
0.55458454
0.55451043
0.55497032
0.55525052
0.55564273
0.55601927
0.55645924
0.55692332
0.55743826
0.5579939
0.55859341
0.55923359
0.559915
0.56063576
0.56139361
0.56218636
0.56301164
0.56386693
0.56474958
0.56565681
0.56658582
0.56753369
0.56849752
0.56947432
0.57046113
0.57145495
0.57245279
0.57345166
0.57444857
0.57544055
0.57642466
0.57739797
0.57835758
0.57930063
0.5802243
0.58112579
0.58200235
0.58285129
0.58366995
0.58445575
0.58520619
0.58591884
0.5865914
0.58722166
0.58780756
0.58834718
0.58883875
0.58928069
0.58967161
0.59001031
0.59029578
0.59052728
0.59070431
0.59082667
0.59089409
0.59090619
0.59086304
0.59076512
0.59061287
0.59040614
0.59014449
0.58982526
0.58944819
0.58900436
0.58850536
0.58791763
0.58730568
0.58652597
0.58583631
0.58475634
0.58412972
0.5825673
0.58219167
0.58002806
0.57993036
0.16685124
0.49932438
0.55856567
0.56594828
0.56249577
0.56236166
0.56241193
0.56290127
0.56307161
0.56341092
0.56368854
0.56404412
0.56441069
0.56481749
0.56524771
0.56570712
0.56619392
0.56671053
0.56725631
0.56783065
0.56843296
0.56906243
0.56971807
0.57039863
0.57110271
0.5718287
0.57257479
0.57333903
0.57411927
0.57491325
0.57571854
0.57653261