/*--------------------------------*- C++ -*----------------------------------*\
| =========                 |                                                 |
| \\      /  F ield         | OpenFOAM: The Open Source CFD Toolbox           |
|  \\    /   O peration     | Version:  2512                                  |
|   \\  /    A nd           | Website:  www.openfoam.com                      |
|    \\/     M anipulation  |                                                 |
\*---------------------------------------------------------------------------*/
FoamFile
{
    version     2.0;
    format      ascii;
    arch        "LSB;label=32;scalar=64";
    class       volScalarField;
    location    "0.143";
    object      nut;
}
// * * * * * * * * * * * * * * * * * * * * * * * * * * * * * * * * * * * * * //

dimensions      [0 2 -1 0 0 0 0];

internalField   nonuniform List<scalar> 
16000
(
5.7892874e-07
1.1007734e-05
1.8840654e-05
2.3175292e-05
1.8551449e-05
2.510908e-05
1.7859099e-05
2.4534608e-05
1.9078411e-05
2.6504296e-05
2.2160533e-05
2.6150039e-05
2.3728877e-05
2.4357801e-05
2.3482723e-05
2.3322963e-05
2.3048687e-05
2.2957462e-05
2.2945506e-05
2.3033108e-05
2.3212455e-05
2.3482094e-05
2.3839249e-05
2.4283694e-05
2.4817153e-05
2.5445223e-05
2.6175497e-05
2.7020273e-05
2.7994611e-05
2.9114726e-05
3.0398385e-05
3.1869284e-05
3.3558086e-05
3.5502603e-05
3.7749399e-05
4.0354036e-05
4.3382707e-05
4.6914338e-05
5.1046672e-05
5.5900923e-05
6.1619339e-05
6.8369359e-05
7.6362213e-05
8.5856755e-05
9.7161088e-05
0.00011064471
0.00012676591
0.00014608326
0.00016927696
0.00019717618
0.00023079602
0.00027138241
0.00032045976
0.00037989789
0.00045199107
0.00053956664
0.0006461209
0.00077599586
0.00093461486
0.0010190591
0.0010189865
0.0010188749
0.0010187232
0.0010184988
0.0010181991
0.0010178141
0.0010173356
0.0010167558
0.0010160642
0.0010152435
0.0010142626
0.0010130593
0.0010115942
0.0010101808
0.001008964
0.0010078524
0.0010068256
0.0010064435
0.0010054273
0.0010063858
4.9798617e-07
1.0429013e-05
1.9566932e-05
2.0973284e-05
1.6760674e-05
2.255185e-05
1.5878732e-05
2.150979e-05
1.6883045e-05
2.3423202e-05
2.0092795e-05
2.3599238e-05
2.1727367e-05
2.2092863e-05
2.1404912e-05
2.1194685e-05
2.096433e-05
2.0870516e-05
2.0861976e-05
2.0941914e-05
2.1107774e-05
2.1357723e-05
2.1689546e-05
2.2103118e-05
2.2599672e-05
2.3184422e-05
2.3863922e-05
2.464923e-05
2.5554588e-05
2.6595824e-05
2.7789468e-05
2.9157163e-05
3.0727288e-05
3.2534849e-05
3.4623416e-05
3.7045236e-05
3.9862978e-05
4.315082e-05
4.6999804e-05
5.1524694e-05
5.6862246e-05
6.3170141e-05
7.0647332e-05
7.9540674e-05
9.0146209e-05
0.00010281528
0.0001179852
0.00013619089
0.00015808532
0.00018446504
0.00021630566
0.0002548079
0.00030144302
0.00035801914
0.0004267571
0.0005103964
0.00061232852
0.0007367614
0.00088893685
0.0010183348
0.0010182814
0.0010181492
0.0010179842
0.0010177483
0.0010174385
0.0010170447
0.0010165579
0.0010159704
0.0010152718
0.0010144455
0.0010134658
0.0010122796
0.0010108434
0.0010094923
0.001008332
0.0010072634
0.0010063254
0.001005747
0.0010052201
0.001006291
4.3627686e-07
9.9903673e-06
1.8557566e-05
1.9174028e-05
1.5041516e-05
1.9903149e-05
1.4155782e-05
1.8713167e-05
1.519644e-05
2.0556099e-05
1.8334706e-05
2.1018543e-05
1.9694363e-05
1.9793503e-05
1.9261845e-05
1.9032541e-05
1.8838356e-05
1.8752743e-05
1.8750037e-05
1.8826963e-05
1.8982457e-05
1.9215082e-05
1.9522926e-05
1.9906175e-05
2.0365741e-05
2.090667e-05
2.1534839e-05
2.2260276e-05
2.3096273e-05
2.4058281e-05
2.5162024e-05
2.6427531e-05
2.7881302e-05
2.9555932e-05
3.1492343e-05
3.3739739e-05
3.6357671e-05
3.9416611e-05
4.3001988e-05
4.7222126e-05
5.2209291e-05
5.8113683e-05
6.5123769e-05
7.3475222e-05
8.3454507e-05
9.5398285e-05
0.00010972631
0.00012695367
0.00014771062
0.00017276721
0.00020306625
0.000239771
0.0002843083
0.000338435
0.0004043109
0.00048460176
0.0005826107
0.00070243948
0.00084918953
0.0010176558
0.0010176218
0.0010174642
0.001017278
0.0010170229
0.0010166956
0.0010162856
0.0010157837
0.0010151816
0.0010144696
0.0010136311
0.0010126434
0.0010114644
0.0010100541
0.0010087741
0.0010076767
0.0010066718
0.0010057814
0.0010051335
0.0010048572
0.0010056339
3.9392767e-07
9.6655215e-06
1.7659008e-05
1.8415593e-05
1.3576734e-05
1.7603851e-05
1.2632456e-05
1.6365622e-05
1.3694686e-05
1.8122604e-05
1.6753833e-05
1.8735834e-05
1.7820421e-05
1.7725193e-05
1.7310959e-05
1.708284e-05
1.6919959e-05
1.6846656e-05
1.6851394e-05
1.6927689e-05
1.7075223e-05
1.7293087e-05
1.7579729e-05
1.7935789e-05
1.8362004e-05
1.8863399e-05
1.9445413e-05
2.0117269e-05
2.089135e-05
2.1782801e-05
2.2806821e-05
2.3982073e-05
2.5333534e-05
2.6891735e-05
2.8695362e-05
3.0791005e-05
3.3235531e-05
3.6096522e-05
3.9454975e-05
4.3413237e-05
4.8100156e-05
5.3660313e-05
6.027381e-05
6.8166435e-05
7.7617807e-05
8.8953364e-05
0.00010257903
0.00011899459
0.00013881286
0.00016278457
0.00019182773
0.00022707828
0.00026993061
0.00032210515
0.00038571896
0.00046338654
0.00055834945
0.00067463777
0.00081726548
0.00099246291
0.0010170058
0.0010168197
0.0010166075
0.0010163288
0.0010159795
0.0010155494
0.0010150284
0.0010144079
0.0010136788
0.001012825
0.001011825
0.0010106499
0.0010092618
0.001008054
0.0010070234
0.0010060847
0.0010052265
0.0010045656
0.0010044527
0.0010048662
3.3942202e-07
9.4305643e-06
1.6892065e-05
1.8500177e-05
1.343683e-05
1.5591602e-05
1.1294527e-05
1.4350764e-05
1.2401939e-05
1.6028018e-05
1.534908e-05
1.6679976e-05
1.607124e-05
1.5844217e-05
1.5516596e-05
1.5302844e-05
1.5164966e-05
1.5103509e-05
1.5113547e-05
1.5187886e-05
1.5326547e-05
1.552931e-05
1.5795022e-05
1.6124819e-05
1.6519401e-05
1.6983812e-05
1.752316e-05
1.8146037e-05
1.8863912e-05
1.9691578e-05
2.0643894e-05
2.1738391e-05
2.2998793e-05
2.4453852e-05
2.614034e-05
2.8102582e-05
3.0395059e-05
3.3083036e-05
3.6244222e-05
3.9975309e-05
4.4402303e-05
4.9665632e-05
5.5938932e-05
6.3438762e-05
7.243963e-05
8.3258325e-05
9.6289448e-05
0.00011202033
0.00013104947
0.00015411271
0.00018210787
0.00021614926
0.00025760513
0.00030816694
0.00036991813
0.00044543265
0.0005379032
0.00065130255
0.00079057617
0.00096186374
0.0010164339
0.0010162166
0.001015973
0.0010156656
0.0010152896
0.0010148347
0.0010142902
0.0010136471
0.0010128968
0.0010120239
0.0010110068
0.001009831
0.0010084748
0.0010073406
0.0010063797
0.001005507
0.0010046815
0.0010040372
0.0010040081
0.0010041513
3.1245337e-07
9.2739817e-06
1.6280653e-05
1.8232974e-05
1.324037e-05
1.3835922e-05
1.0736944e-05
1.2680896e-05
1.1696072e-05
1.4308044e-05
1.4120893e-05
1.4872651e-05
1.4468037e-05
1.4162488e-05
1.3889232e-05
1.3691614e-05
1.3570023e-05
1.3516302e-05
1.3528249e-05
1.3598835e-05
1.3728079e-05
1.3916312e-05
1.4162637e-05
1.446846e-05
1.4834644e-05
1.5266167e-05
1.5767844e-05
1.6347827e-05
1.7016695e-05
1.7788858e-05
1.8679015e-05
1.9703792e-05
2.0885933e-05
2.2252729e-05
2.3839403e-05
2.5688427e-05
2.7852295e-05
3.0394462e-05
3.3390592e-05
3.6932546e-05
4.1143763e-05
4.6162038e-05
5.2156942e-05
5.933672e-05
6.797266e-05
7.8375902e-05
9.0932705e-05
0.00010612163
0.00012453056
0.0001468861
0.00017407176
0.00020718767
0.00024758453
0.00029693493
0.00035730142
0.00043123248
0.00052188988
0.00063321004
0.00077009769
0.00093864034
0.0010158981
0.0010156468
0.0010153676
0.0010150273
0.0010146204
0.0010141368
0.0010135654
0.0010128961
0.0010121211
0.0010112266
0.0010101891
0.0010090063
0.0010076975
0.0010066386
0.0010057493
0.0010049424
0.0010041552
0.0010035378
0.0010034976
0.0010034837
2.8229462e-07
9.1815216e-06
1.5799132e-05
1.720887e-05
1.3083792e-05
1.2225335e-05
1.0731336e-05
1.1674614e-05
1.1203958e-05
1.2721242e-05
1.3000166e-05
1.326626e-05
1.2968047e-05
1.2629573e-05
1.2388572e-05
1.2208485e-05
1.2100178e-05
1.2053958e-05
1.2068278e-05
1.2136651e-05
1.2258716e-05
1.2435301e-05
1.2665736e-05
1.2874985e-05
1.320812e-05
1.3603827e-05
1.4066349e-05
1.4603092e-05
1.5223613e-05
1.5941608e-05
1.6771581e-05
1.7729286e-05
1.8836575e-05
2.0119358e-05
2.1611432e-05
2.3353596e-05
2.5396486e-05
2.7801791e-05
3.0643878e-05
3.4267377e-05
3.830516e-05
4.3127697e-05
4.8902901e-05
5.5831924e-05
6.4183886e-05
7.4267197e-05
8.6462657e-05
0.00010124338
0.00011918982
0.00014102454
0.00016762197
0.00020007475
0.00023972367
0.00028823135
0.00034765046
0.00042051736
0.00050997845
0.00061995168
0.00075532325
0.00092216
0.0010153952
0.0010151072
0.0010147884
0.0010144115
0.0010139701
0.0010134545
0.001012853
0.0010121546
0.0010113515
0.001010433
0.0010093742
0.0010081755
0.001006939
0.0010059563
0.001005139
0.001004398
0.0010036548
0.0010030685
0.0010030055
0.0010028547
2.4751113e-07
9.1293883e-06
1.5378402e-05
1.561298e-05
1.1733025e-05
1.0649035e-05
9.0543585e-06
1.0372699e-05
9.4854024e-06
1.1460561e-05
1.1861083e-05
1.178259e-05
1.1530509e-05
1.1202575e-05
1.09893e-05
1.0831937e-05
1.0739664e-05
1.0704033e-05
1.0658508e-05
1.0712032e-05
1.0818919e-05
1.0979174e-05
1.1190907e-05
1.1453726e-05
1.1771776e-05
1.2148087e-05
1.2587072e-05
1.3096118e-05
1.3684268e-05
1.4364821e-05
1.5152514e-05
1.6062663e-05
1.7116725e-05
1.8339761e-05
1.976476e-05
2.1431481e-05
2.3389466e-05
2.5699329e-05
2.8435018e-05
3.1686571e-05
3.5563725e-05
4.0205459e-05
4.5779837e-05
5.2924908e-05
6.1074594e-05
7.093444e-05
8.2883026e-05
9.7391292e-05
0.00011503555
0.00013653995
0.00016277537
0.00019483405
0.00023405529
0.00028210126
0.00034102665
0.00041337021
0.00050228009
0.00061167567
0.00074644779
0.00091267506
0.0010149186
0.0010145916
0.0010142301
0.0010138133
0.0010133345
0.001012784
0.0010121499
0.0010114203
0.0010105865
0.0010096414
0.0010085637
0.0010073417
0.0010062045
0.0010052991
0.001004553
0.0010038783
0.001003186
0.0010026254
0.0010025181
0.0010022082
2.282496e-07
9.0945889e-06
1.4922363e-05
1.3671448e-05
9.6140566e-06
9.4882453e-06
7.4900052e-06
8.9078524e-06
9.0581702e-06
1.0265934e-05
1.0710335e-05
1.0405856e-05
1.0178271e-05
9.8843352e-06
9.6981698e-06
9.4981411e-06
9.3982336e-06
9.3596248e-06
9.3753056e-06
9.4419539e-06
9.5546579e-06
9.7163984e-06
9.9246586e-06
1.0179864e-05
1.0486082e-05
1.0847164e-05
1.126763e-05
1.1754929e-05
1.2317774e-05
1.2969062e-05
1.3723862e-05
1.4597284e-05
1.5610671e-05
1.6788505e-05
1.8163286e-05
1.9774152e-05
2.1669993e-05
2.3910845e-05
2.6570085e-05
2.9737001e-05
3.352173e-05
3.8061291e-05
4.3526552e-05
5.0115641e-05
5.8082526e-05
6.774317e-05
8.0179153e-05
9.4548755e-05
0.00011204917
0.00013341146
0.00015950883
0.00019144025
0.00023055202
0.00027851566
0.00033739988
0.00040976071
0.00049876575
0.00060835621
0.0007434505
0.00091016949
0.0010144627
0.0010140943
0.0010136878
0.0010132288
0.0010127102
0.0010121225
0.0010114539
0.0010106918
0.0010098257
0.0010088508
0.001007759
0.0010065355
0.0010054997
0.0010046726
0.0010039958
0.0010033872
0.0010027547
0.0010022154
0.0010020456
0.0010015587
2.0882882e-07
9.0529777e-06
1.3211667e-05
1.1950699e-05
7.7715042e-06
8.4426386e-06
6.7848249e-06
8.0173288e-06
8.3829143e-06
9.1761127e-06
9.5713124e-06
9.1538147e-06
8.9360876e-06
8.5970427e-06
8.4037517e-06
8.2755323e-06
8.2093242e-06
8.1961446e-06
8.2289715e-06
8.3082236e-06
8.4282427e-06
8.5908027e-06
8.7971108e-06
9.0470203e-06
9.344872e-06
9.6949564e-06
1.0101978e-05
1.0573582e-05
1.1118301e-05
1.1748658e-05
1.24801e-05
1.332782e-05
1.4313244e-05
1.5460518e-05
1.6801942e-05
1.8376405e-05
2.0232551e-05
2.2430343e-05
2.5043484e-05
2.8161699e-05
3.1895259e-05
3.6380847e-05
4.1792525e-05
4.8328622e-05
5.6245524e-05
6.5861373e-05
7.7568447e-05
9.1827289e-05
0.00011022068
0.00013162998
0.00015781533
0.00018988943
0.00022921476
0.00027748255
0.00033678819
0.0004097208
0.00049948636
0.00061007037
0.00074644319
0.00091479739
0.0010140212
0.0010136094
0.0010131562
0.0010126532
0.0010120932
0.0010114669
0.0010107625
0.0010099669
0.0010090686
0.0010080614
0.0010069552
0.0010057693
0.0010048299
0.001004081
0.001003471
0.0010029267
0.0010023624
0.0010018472
0.0010016004
0.0010010691
1.8952242e-07
9.0020452e-06
1.0475379e-05
9.8237788e-06
6.4333581e-06
7.5139265e-06
6.1903207e-06
7.1996733e-06
7.8361603e-06
8.1800541e-06
8.4520753e-06
7.9283256e-06
7.666775e-06
7.4273503e-06
7.2816682e-06
7.1926373e-06
7.1546356e-06
7.1642233e-06
7.2138209e-06
7.3027196e-06
7.4293443e-06
7.5950581e-06
7.8014655e-06
8.0490354e-06
8.3422258e-06
8.6857996e-06
9.0847722e-06
9.5470357e-06
1.0081119e-05
1.0699228e-05
1.1358683e-05
1.2182099e-05
1.3141551e-05
1.4260803e-05
1.5571926e-05
1.7113574e-05
1.8934207e-05
2.1093765e-05
2.3666387e-05
2.6742511e-05
3.0433542e-05
3.5151038e-05
4.0564607e-05
4.7114551e-05
5.5059785e-05
6.4721846e-05
7.6504162e-05
9.08782e-05
0.00010843851
0.00012992629
0.00015767975
0.00019016918
0.00023003529
0.00027899983
0.00033919831
0.00041326977
0.00050447866
0.00061687926
0.00075552062
0.00092669534
0.0010135881
0.001013131
0.0010126305
0.0010120824
0.0010114799
0.001010814
0.0010100732
0.0010092439
0.0010083144
0.0010072761
0.0010061478
0.001005047
0.0010041996
0.0010035279
0.0010029821
0.0010024984
0.0010020057
0.0010015284
0.0010012108
0.0010006761
1.7475288e-07
8.9489554e-06
8.2674994e-06
8.3621498e-06
5.7592554e-06
6.653631e-06
5.6782608e-06
6.4845744e-06
7.2775832e-06
7.2503848e-06
7.2386574e-06
6.7919259e-06
6.5774305e-06
6.3990477e-06
6.2940097e-06
6.238025e-06
6.2261608e-06
6.2538572e-06
6.317873e-06
6.417761e-06
6.5519856e-06
6.7223399e-06
6.9313029e-06
7.1798442e-06
7.4725501e-06
7.7809872e-06
8.1707495e-06
8.6233622e-06
9.1472202e-06
9.7540845e-06
1.0458102e-05
1.1277677e-05
1.2233562e-05
1.3349597e-05
1.4658171e-05
1.6198375e-05
1.801931e-05
2.018177e-05
2.2761453e-05
2.5850803e-05
2.9563966e-05
3.4043598e-05
3.9464513e-05
4.6036379e-05
5.402257e-05
6.4304656e-05
7.6272623e-05
9.0892001e-05
0.00010876803
0.00013066485
0.00015751612
0.000192267
0.00023300692
0.00028306902
0.00034464301
0.00042043599
0.00051379255
0.00062886249
0.00077080446
0.00094603863
0.0010131574
0.0010126536
0.0010121057
0.0010115123
0.0010108669
0.0010101612
0.001009384
0.0010085212
0.0010075615
0.0010064997
0.0010053477
0.0010043723
0.0010036123
0.0010030157
0.0010025319
0.0010021042
0.0010016789
0.001001252
0.0010008889
0.0010003373
1.6126991e-07
8.870275e-06
6.577345e-06
7.3450534e-06
5.132636e-06
5.8831954e-06
5.235027e-06
5.8475732e-06
6.6109777e-06
6.1969878e-06
6.1425992e-06
5.7974299e-06
5.6263413e-06
5.4976729e-06
5.4276877e-06
5.4001915e-06
5.4106516e-06
5.45654e-06
5.5348044e-06
5.6458912e-06
5.7891436e-06
5.9664887e-06
6.1547591e-06
6.4021818e-06
6.6935863e-06
7.0331744e-06
7.4280047e-06
7.8856252e-06
8.4146223e-06
9.0269326e-06
9.7368369e-06
1.0562506e-05
1.1525925e-05
1.2651308e-05
1.3971623e-05
1.5526763e-05
1.7367003e-05
1.9554487e-05
2.2167165e-05
2.5300478e-05
2.9071492e-05
3.362612e-05
3.9148172e-05
4.5852649e-05
5.4011199e-05
6.396175e-05
7.6124154e-05
9.1006064e-05
0.00011019477
0.00013268878
0.0001602909
0.00019419286
0.00023811481
0.00028968321
0.0003531259
0.00043123791
0.00052746732
0.0006460879
0.00079240481
0.00097299614
0.0010127239
0.0010121724
0.0010115777
0.0010109392
0.0010102512
0.0010095058
0.0010086927
0.001007798
0.0010068085
0.0010057332
0.0010046211
0.0010037475
0.0010030706
0.0010025457
0.0010021223
0.0010017465
0.0010013829
0.00100102
0.0010006529
0.0010000855
1.4940041e-07
8.7368233e-06
5.2799343e-06
6.4220239e-06
4.5697202e-06
5.1954169e-06
4.8566118e-06
5.1967114e-06
5.77531e-06
5.2817107e-06
5.1817702e-06
4.9284206e-06
4.7980468e-06
4.7109183e-06
4.6719514e-06
4.6700936e-06
4.7014934e-06
4.7646497e-06
4.8575056e-06
4.9623038e-06
5.1106623e-06
5.2931461e-06
5.5120514e-06
5.7703638e-06
6.0723638e-06
6.4226047e-06
6.8280338e-06
7.2967909e-06
7.8376629e-06
8.4627334e-06
9.1864043e-06
1.0027081e-05
1.0957556e-05
1.2092303e-05
1.3424211e-05
1.4993952e-05
1.6853167e-05
1.9065403e-05
2.1710886e-05
2.4888535e-05
2.8719316e-05
3.360667e-05
3.9279956e-05
4.6177882e-05
5.4581428e-05
6.4838201e-05
7.7388092e-05
9.2761128e-05
0.00011160653
0.00013596685
0.00016454823
0.00019967107
0.00024285538
0.00029882124
0.00036463501
0.00044567595
0.00054552224
0.00066860052
0.00082040513
0.0010077138
0.0010122827
0.0010116834
0.0010110432
0.0010103605
0.0010096306
0.0010088462
0.0010079979
0.0010070739
0.0010060592
0.0010049655
0.0010039575
0.0010031773
0.0010025768
0.0010021186
0.0010017541
0.0010014269
0.0010011134
0.0010008199
0.0010004999
0.00099993387
1.3889628e-07
8.5172828e-06
4.3029715e-06
5.5964599e-06
4.0652456e-06
4.5838772e-06
4.5243797e-06
4.4906961e-06
4.934672e-06
4.4674038e-06
4.3508109e-06
4.1729314e-06
4.0808361e-06
4.0294077e-06
4.0184636e-06
4.040243e-06
4.0917036e-06
4.1556147e-06
4.2584158e-06
4.3917828e-06
4.5565999e-06
4.7544023e-06
4.9881365e-06
5.2609531e-06
5.577655e-06
5.9430277e-06
6.364062e-06
6.8287961e-06
7.381639e-06
8.0192988e-06
8.7562353e-06
9.6108927e-06
1.0605847e-05
1.1769488e-05
1.3135719e-05
1.4746564e-05
1.6656012e-05
1.8930006e-05
2.1651959e-05
2.4925785e-05
2.8877984e-05
3.3667976e-05
3.9488641e-05
4.6577652e-05
5.5227935e-05
6.6352456e-05
7.9393759e-05
9.5381049e-05
0.00011499526
0.00013907639
0.00017024404
0.00020686139
0.00025190249
0.00030732066
0.00037912696
0.00046371377
0.0005679333
0.00069639482
0.00085482549
0.0010124526
0.0010118295
0.0010111836
0.0010104997
0.0010097744
0.0010090038
0.0010081815
0.0010072987
0.0010063467
0.0010053203
0.0010042383
0.0010033581
0.0010026641
0.0010021327
0.001001735
0.0010014268
0.0010011473
0.0010008723
0.0010006374
0.001000395
0.00099983895
1.2966598e-07
8.2144659e-06
3.6855204e-06
4.8621139e-06
3.6151048e-06
4.0412766e-06
4.0077733e-06
3.8523614e-06
4.1264862e-06
3.7491112e-06
3.6398078e-06
3.5219486e-06
3.4654895e-06
3.4455703e-06
3.4603937e-06
3.4916355e-06
3.5566431e-06
3.6512379e-06
3.7746378e-06
3.9270876e-06
4.1100529e-06
4.3255468e-06
4.5768939e-06
4.8675029e-06
5.1907881e-06
5.5714264e-06
6.008038e-06
6.5087272e-06
7.0837012e-06
7.7451398e-06
8.5078993e-06
9.3911912e-06
1.0418537e-05
1.1619424e-05
1.3030102e-05
1.4694157e-05
1.666847e-05
1.9022097e-05
2.1841884e-05
2.523791e-05
2.9341734e-05
3.4320781e-05
4.0380447e-05
4.776902e-05
5.6795896e-05
6.784081e-05
8.2093855e-05
9.8817836e-05
0.0001193453
0.00014456725
0.0001755572
0.00021569236
0.00026291526
0.00032103925
0.00039259059
0.00048525315
0.00059460279
0.00072937952
0.00089557889
0.0010120206
0.0010113609
0.0010106714
0.0010099461
0.0010091802
0.0010083703
0.0010075119
0.0010065967
0.0010056172
0.0010045853
0.0010035967
0.001002821
0.0010022086
0.0010017401
0.0010013958
0.001001139
0.0010009071
0.0010006659
0.0010004703
0.0010002973
0.0009998328
1.2174922e-07
7.3853655e-06
3.2362009e-06
4.205243e-06
3.2146496e-06
3.4090617e-06
3.5503328e-06
3.2677795e-06
3.3960582e-06
3.1257726e-06
3.038465e-06
2.9682121e-06
2.94434e-06
2.9529245e-06
2.9768702e-06
3.0382488e-06
3.1280532e-06
3.2450724e-06
3.3893837e-06
3.5619192e-06
3.7646525e-06
3.9998557e-06
4.2630576e-06
4.5713878e-06
4.9240647e-06
5.3267603e-06
5.7863111e-06
6.3111255e-06
6.9116327e-06
7.6007946e-06
8.3939538e-06
9.3111482e-06
1.0376974e-05
1.1622397e-05
1.3029848e-05
1.4743312e-05
1.6778087e-05
1.9206827e-05
2.2253242e-05
2.5795465e-05
3.008073e-05
3.5284405e-05
4.1625483e-05
4.9365537e-05
5.882967e-05
7.0420456e-05
8.4631932e-05
0.00010207055
0.00012458466
0.00015111411
0.00018372611
0.00022383403
0.00027576781
0.00033698027
0.00041234965
0.00051010382
0.00062532056
0.00076733169
0.00094243262
0.0010115735
0.0010108765
0.0010101464
0.0010093823
0.0010085786
0.0010077315
0.0010068381
0.0010058939
0.0010048956
0.0010038688
0.0010030256
0.0010023459
0.0010018093
0.001001399
0.0010011018
0.0010008887
0.0010007015
0.0010004987
0.0010003394
0.0010002302
0.00099996381
1.1536003e-07
5.360409e-06
2.8512731e-06
3.6099639e-06
2.8664787e-06
2.8261398e-06
3.0942168e-06
2.7381928e-06
2.7689745e-06
2.5938167e-06
2.5355726e-06
2.5044042e-06
2.5028827e-06
2.530651e-06
2.5903356e-06
2.6778365e-06
2.7912233e-06
2.9302711e-06
3.0957847e-06
3.2891263e-06
3.5075771e-06
3.7620022e-06
4.0525223e-06
4.3831715e-06
4.758785e-06
5.1852413e-06
5.6697015e-06
6.2209103e-06
6.8496328e-06
7.5527964e-06
8.3743835e-06
9.3228697e-06
1.0423851e-05
1.1709403e-05
1.3219643e-05
1.5004738e-05
1.712672e-05
1.9663253e-05
2.2710714e-05
2.6388204e-05
3.0843629e-05
3.6520332e-05
4.318051e-05
5.131902e-05
6.1277741e-05
7.3481765e-05
8.845408e-05
0.00010683866
0.00013061539
0.00015860396
0.00019302469
0.00023536855
0.00029027136
0.00035492273
0.00043455028
0.00053265083
0.0006597279
0.000809847
0.00099493905
0.001011113
0.0010103778
0.00100961
0.0010088097
0.0010079716
0.0010070904
0.0010061637
0.0010051921
0.0010041885
0.0010032532
0.0010025187
0.0010019291
0.0010014627
0.0010011074
0.0010008527
0.0010006746
0.0010005242
0.0010003642
0.001000247
0.0010001824
0.001
1.1014866e-07
3.9869184e-06
2.5055414e-06
3.0594886e-06
2.4295847e-06
2.3358282e-06
2.616946e-06
2.2673551e-06
2.248346e-06
2.1475558e-06
2.1215103e-06
2.1172912e-06
2.1452002e-06
2.2045397e-06
2.2911812e-06
2.4027372e-06
2.5384876e-06
2.6988932e-06
2.8825946e-06
3.0955447e-06
3.3387548e-06
3.6150559e-06
3.9279039e-06
4.2815094e-06
4.6809573e-06
5.1323823e-06
5.6432365e-06
6.2132886e-06
6.8687509e-06
7.6170532e-06
8.4754741e-06
9.4654808e-06
1.0614131e-05
1.1955408e-05
1.3531918e-05
1.5396772e-05
1.7615994e-05
2.0271744e-05
2.3466258e-05
2.7326421e-05
3.200949e-05
3.7709415e-05
4.4998395e-05
5.3574543e-05
6.4076276e-05
7.6952939e-05
9.2757885e-05
0.00011217379
0.00013604256
0.00016688596
0.00020327408
0.00024805254
0.0003031795
0.00037455284
0.00045881455
0.00056264987
0.00069728253
0.00085628986
0.0010114018
0.0010106413
0.0010098684
0.0010090656
0.0010082314
0.0010073619
0.0010064511
0.0010054957
0.0010045039
0.0010035122
0.0010027139
0.0010020745
0.0010015661
0.001001164
0.00100086
0.0010006454
0.0010004953
0.001000371
0.0010002478
0.001000174
0.0010001446
0.0010000374
1.045877e-07
3.5224277e-06
2.1400208e-06
2.5516647e-06
2.0710818e-06
1.9251949e-06
2.1298937e-06
1.8567872e-06
1.8275177e-06
1.7833965e-06
1.785201e-06
1.8130557e-06
1.8734786e-06
1.9601349e-06
2.0705866e-06
2.2039114e-06
2.3603166e-06
2.5389665e-06
2.7445668e-06
2.9782388e-06
3.2425055e-06
3.54043e-06
3.8756796e-06
4.2526367e-06
4.6765666e-06
5.1538284e-06
5.6858481e-06
6.2919463e-06
6.9795329e-06
7.7630696e-06
8.6607483e-06
9.6952833e-06
1.0895246e-05
1.229656e-05
1.3944443e-05
1.5895518e-05
1.82201e-05
2.1005352e-05
2.4359702e-05
2.84172e-05
3.3344285e-05
3.9631554e-05
4.7024259e-05
5.6067713e-05
6.7148984e-05
8.0742907e-05
9.7434659e-05
0.00011794608
0.00014449409
0.00017576565
0.00021423846
0.00026159714
0.00031991738
0.0003954461
0.000484635
0.00059457866
0.00073721854
0.0009057335
0.0010109457
0.0010101605
0.0010093536
0.0010085188
0.0010076528
0.0010067538
0.0010058179
0.0010048405
0.0010038389
0.0010029468
0.0010022436
0.0010016879
0.0010012517
0.001000909
0.0010006501
0.0010004738
0.0010003483
0.001000243
0.0010001486
0.0010001148
0.0010001132
0.0010000534
1.0052523e-07
3.037983e-06
1.8244837e-06
2.0402239e-06
1.7749869e-06
1.5750727e-06
1.68299e-06
1.5116298e-06
1.4987887e-06
1.4992822e-06
1.5287468e-06
1.5900697e-06
1.6772598e-06
1.7867898e-06
1.9177135e-06
2.0702275e-06
2.2442823e-06
2.4429674e-06
2.6678579e-06
2.9212758e-06
3.2059984e-06
3.5252746e-06
3.8829117e-06
4.283416e-06
4.7321905e-06
5.2322177e-06
5.7968031e-06
6.4334453e-06
7.1542151e-06
7.9742591e-06
8.9128016e-06
9.9938676e-06
1.1247704e-05
1.2712293e-05
1.4435407e-05
1.6477133e-05
1.8912596e-05
2.1834055e-05
2.5356739e-05
2.962255e-05
3.5036419e-05
4.1408491e-05
4.9192963e-05
5.8722371e-05
7.0404563e-05
8.4742085e-05
0.00010235329
0.00012400143
0.00015198513
0.00018499442
0.00022561906
0.0002756406
0.00033726089
0.00041703844
0.00051132898
0.00062761148
0.00077851312
0.00095693268
0.0010104888
0.0010096774
0.0010088399
0.0010079767
0.0010070823
0.0010061547
0.0010051957
0.0010042138
0.0010032398
0.0010024667
0.0010018437
0.0010013546
0.0010009791
0.0010006948
0.0010004717
0.00100033
0.0010002272
0.001000138
0.0010000665
0.0010000656
0.0010000934
0.0010000665
9.8114001e-08
2.5365608e-06
1.5503061e-06
1.5531783e-06
1.5045801e-06
1.2774224e-06
1.3209389e-06
1.2379819e-06
1.253637e-06
1.285458e-06
1.3483578e-06
1.435504e-06
1.5438473e-06
1.6720478e-06
1.8203566e-06
1.989781e-06
2.1811834e-06
2.3975276e-06
2.6406475e-06
2.9130899e-06
3.2177785e-06
3.5580811e-06
3.9379081e-06
4.3618632e-06
4.8354537e-06
5.3653753e-06
5.9598824e-06
6.6292359e-06
7.3777798e-06
8.2348847e-06
9.2149987e-06
1.0343541e-05
1.165255e-05
1.3182257e-05
1.4983036e-05
1.7187635e-05
1.9755741e-05
2.2839329e-05
2.6561049e-05
3.1072241e-05
3.6559359e-05
4.3251767e-05
5.1432902e-05
6.1451782e-05
7.3738426e-05
8.8823047e-05
0.0001073583
0.00013128574
0.00015952799
0.00019427584
0.00023705166
0.00028973654
0.0003580144
0.00043863367
0.00053804498
0.00066071028
0.00081987033
0.0010083049
0.001010041
0.0010092023
0.0010083363
0.0010074471
0.0010065295
0.0010055786
0.0010045936
0.0010036024
0.0010027488
0.0010020628
0.0010015129
0.0010010769
0.0010007421
0.0010005122
0.0010003224
0.0010002076
0.0010001257
0.001000054
0.0010000041
0.0010000252
0.0010000748
0.0010000667
9.8143092e-08
2.0406612e-06
1.3195192e-06
1.1800579e-06
1.2358813e-06
1.0297084e-06
1.0560512e-06
1.0364265e-06
1.0807308e-06
1.1419127e-06
1.2285597e-06
1.3348777e-06
1.4598007e-06
1.6034777e-06
1.7669686e-06
1.951772e-06
2.1594157e-06
2.392464e-06
2.6530919e-06
2.9439572e-06
3.2680687e-06
3.6288721e-06
4.0303619e-06
4.4772406e-06
4.9751389e-06
5.5309136e-06
6.153047e-06
6.8521453e-06
7.6415614e-06
8.5381825e-06
9.5633586e-06
1.0744135e-05
1.2114601e-05
1.3717634e-05
1.5606926e-05
1.7849477e-05
2.052868e-05
2.3748314e-05
2.7636832e-05
3.2353277e-05
3.8094128e-05
4.5101138e-05
5.3670053e-05
6.4167336e-05
7.7043287e-05
9.3621907e-05
0.0001131967
0.0001372581
0.00016685405
0.00020327942
0.00024813266
0.00030623812
0.0003748463
0.00045943482
0.00056379969
0.00069938611
0.00085975466
0.0010104697
0.0010096124
0.0010087477
0.0010078563
0.0010069408
0.0010060006
0.0010050366
0.0010040537
0.0010030861
0.0010023346
0.0010017258
0.0010012429
0.0010008617
0.0010005658
0.0010003482
0.0010002013
0.0010001046
0.0010000389
0.00099998512
0.0009999587
0.00099999806
0.0010000627
0.0010000666
1.0142944e-07
1.5835027e-06
1.1302686e-06
9.0799728e-07
1.0795814e-06
8.2520946e-07
8.7433481e-07
8.9960023e-07
9.6638314e-07
1.0502884e-06
1.1539028e-06
1.2748081e-06
1.4133944e-06
1.5706557e-06
1.7480595e-06
1.9473193e-06
2.1703826e-06
2.419277e-06
2.6966341e-06
3.005091e-06
3.3477202e-06
3.7280392e-06
4.1501282e-06
4.6187967e-06
5.1398118e-06
5.7202081e-06
6.3687056e-06
7.0962789e-06
7.9167883e-06
8.8478401e-06
9.9117181e-06
1.1136724e-05
1.2558564e-05
1.4222178e-05
1.6183856e-05
1.8513864e-05
2.1299577e-05
2.4649342e-05
2.8697194e-05
3.3608685e-05
3.9858355e-05
4.7216879e-05
5.6215121e-05
6.7237139e-05
8.0755144e-05
9.7350998e-05
0.00011774229
0.00014281434
0.00017365686
0.00021359968
0.00026070749
0.00031873658
0.00039026655
0.00047850081
0.0005931529
0.00072871043
0.00089627805
0.001010078
0.0010092073
0.0010083241
0.0010074146
0.001006478
0.0010055125
0.0010045226
0.001003536
0.0010026785
0.0010019927
0.0010014453
0.0010010145
0.0010006797
0.0010004229
0.0010002278
0.0010001032
0.0010000211
0.00099996651
0.00099992741
0.00099992184
0.00099997654
0.0010000515
0.0010000648
1.0812939e-07
1.2370368e-06
9.6785232e-07
7.6488712e-07
7.7102957e-07
7.0565618e-07
7.5177785e-07
8.1221666e-07
8.9579726e-07
9.9540156e-07
1.1117326e-06
1.2447051e-06
1.3953808e-06
1.5650682e-06
1.755354e-06
1.9680087e-06
2.2050124e-06
2.4685717e-06
2.7611579e-06
3.0855518e-06
3.4449087e-06
3.8428467e-06
4.2835711e-06
4.7720508e-06
5.3142635e-06
5.9154159e-06
6.5875941e-06
7.3407958e-06
8.1967134e-06
9.1621989e-06
1.0265545e-05
1.1536426e-05
1.3012254e-05
1.4740051e-05
1.6778671e-05
1.9201477e-05
2.2099623e-05
2.5586053e-05
2.9800391e-05
3.4914992e-05
4.1142386e-05
4.8744471e-05
5.8043687e-05
6.9435228e-05
8.3407704e-05
0.00010056246
0.0001227239
0.00014884177
0.00018096355
0.00022049652
0.00026918124
0.0003291768
0.00040316221
0.00049916813
0.00061276009
0.00075315201
0.00092685181
0.001009723
0.0010088372
0.0010079375
0.0010070156
0.00100607
0.0010050987
0.0010041067
0.0010031318
0.0010023572
0.0010017266
0.0010012245
0.0010008296
0.0010005276
0.001000319
0.0010001317
0.0010000251
0.0009999541
0.00099990811
0.00099988077
0.00099989041
0.000999956
0.0010000403
0.0010000576
1.2253974e-07
1.2091407e-06
8.0946338e-07
5.6802766e-07
6.1254704e-07
6.1533204e-07
6.7920062e-07
7.5808422e-07
8.5490549e-07
9.664154e-07
1.0936258e-06
1.2373463e-06
1.3988648e-06
1.5795843e-06
1.7811186e-06
2.005265e-06
2.2540334e-06
2.5296718e-06
2.8347018e-06
3.171963e-06
3.5446737e-06
3.956518e-06
4.4117687e-06
4.9154648e-06
5.4736629e-06
6.0937816e-06
6.7850599e-06
7.5591437e-06
8.4308318e-06
9.4189663e-06
1.0547505e-05
1.1846866e-05
1.3355447e-05
1.5121528e-05
1.7205511e-05
1.9682663e-05
2.2646445e-05
2.6212558e-05
3.0523906e-05
3.57567e-05
4.2128073e-05
5.0263006e-05
5.984985e-05
7.1590037e-05
8.5986368e-05
0.00010365738
0.00012536652
0.00015205656
0.00018489294
0.00022531603
0.00027511418
0.00033961199
0.0004158977
0.00051006328
0.00062641888
0.00077035483
0.00094861589
0.0010094316
0.0010085279
0.001007608
0.0010066683
0.0010057078
0.001004728
0.0010037435
0.0010028308
0.0010021132
0.0010015306
0.0010010672
0.001000702
0.0010004225
0.0010002115
0.0010000639
0.00099996396
0.00099990105
0.00099986167
0.00099984323
0.00099986037
0.00099992528
0.001000009
0.0010000376
1.1485116e-07
7.162791e-07
6.4119564e-07
4.7022809e-07
5.1322251e-07
5.5911183e-07
6.3781918e-07
7.3014033e-07
8.3746823e-07
9.5912517e-07
1.0961918e-06
1.2497116e-06
1.4209995e-06
1.6115158e-06
1.8229087e-06
2.0570225e-06
2.3159214e-06
2.6018822e-06
2.9175359e-06
3.2657695e-06
3.6498691e-06
4.0735871e-06
4.5412666e-06
5.05802e-06
5.6299848e-06
6.2646742e-06
6.9714437e-06
7.7620961e-06
8.6587136e-06
9.6694873e-06
1.0823708e-05
1.2152551e-05
1.3695318e-05
1.5501378e-05
1.7632442e-05
2.016536e-05
2.3195499e-05
2.6840883e-05
3.1247276e-05
3.6594407e-05
4.310362e-05
5.1047205e-05
6.0759881e-05
7.2654813e-05
8.7240339e-05
0.00010514358
0.00012713867
0.00015553533
0.00018905394
0.0002303103
0.00028113226
0.00034378799
0.00042110136