/*--------------------------------*- C++ -*----------------------------------*\
| =========                 |                                                 |
| \\      /  F ield         | OpenFOAM: The Open Source CFD Toolbox           |
|  \\    /   O peration     | Version:  2512                                  |
|   \\  /    A nd           | Website:  www.openfoam.com                      |
|    \\/     M anipulation  |                                                 |
\*---------------------------------------------------------------------------*/
FoamFile
{
    version     2.0;
    format      ascii;
    arch        "LSB;label=32;scalar=64";
    class       volScalarField;
    location    "0.143";
    object      omega;
}
// * * * * * * * * * * * * * * * * * * * * * * * * * * * * * * * * * * * * * //

dimensions      [0 0 -1 0 0 0 0];

internalField   nonuniform List<scalar> 
16000
(
1462.7282
1944.5816
1081.8857
643.98954
453.1781
315.52072
239.23391
180.46918
145.45319
117.75194
100.13618
85.715941
75.065731
66.143837
58.867861
52.73156
47.550018
43.128617
39.328258
36.037489
33.172813
30.663613
28.451727
26.490807
24.743442
23.180534
21.777978
20.517153
19.382288
18.35899
17.434229
16.597721
15.84128
15.157971
14.54188
13.987508
13.489683
13.043516
12.644919
12.290454
11.976252
11.698228
11.453408
11.239095
11.052223
10.889663
10.748989
10.627896
10.524174
10.435729
10.360685
10.297403
10.244356
10.200196
10.163749
10.134112
10.110687
10.093241
10.082097
10.077897
10.078442
10.078513
10.078018
10.077143
10.075754
10.07379
10.071206
10.067973
10.064033
10.059265
10.053432
10.046072
10.036946
10.028606
10.022319
10.017459
10.014011
10.017046
10.016506
10.032783
1466.8182
1922.4633
1071.4148
644.0162
453.46297
318.42061
240.34397
182.35991
146.29761
118.79367
100.68618
86.287336
75.430997
66.46109
59.097294
52.910019
47.680751
43.22389
39.395688
36.082772
33.200843
30.679019
28.458149
26.491175
24.739645
23.174079
21.769668
20.507434
19.371677
18.348248
17.423848
16.587838
15.831886
15.148942
14.533125
13.979001
13.481506
13.035693
12.637281
12.282949
11.969125
11.691503
11.446954
11.232896
11.046441
10.88431
10.744031
10.623319
10.519987
10.431936
10.357259
10.294327
10.241609
10.197762
10.161584
10.132133
10.108769
10.091156
10.079367
10.073972
10.07406
10.074085
10.073494
10.072537
10.071081
10.069057
10.066415
10.063124
10.059133
10.054327
10.04851
10.041289
10.032384
10.024513
10.018647
10.014117
10.011351
10.01272
10.016708
10.03353
1474.882
1910.0315
1057.9161
640.23862
450.29477
318.66399
239.30267
182.5644
145.87994
118.96955
100.54784
86.312672
75.337919
66.371533
58.972651
52.772527
47.531315
43.06842
39.238334
35.925932
33.04648
30.529229
28.314434
26.354789
24.611055
23.053654
21.657311
20.402769
19.274345
18.258242
17.341096
16.511998
15.762544
15.085591
14.475297
13.926279
13.433604
12.99237
12.598118
12.247499
11.937317
11.663153
11.421695
11.210382
11.026579
10.866898
10.728822
10.61008
10.508522
10.42208
10.348821
10.287143
10.235526
10.192647
10.157308
10.128543
10.105694
10.088399
10.076603
10.070587
10.070091
10.069991
10.069254
10.06816
10.066581
10.064447
10.061697
10.058301
10.054213
10.049322
10.043454
10.0363
10.0276
10.020273
10.014879
10.010837
10.008444
10.009233
10.015068
10.029724
1493.0239
1906.5014
1047.1688
636.6502
446.7354
318.72207
237.97013
182.62961
145.32194
119.04633
100.3578
86.276368
75.203821
66.23487
58.807803
52.596501
47.346572
42.88003
39.050481
35.740874
32.865892
30.355075
28.148041
26.19737
24.462957
22.915181
21.528322
20.282833
19.162952
18.155285
17.246482
16.425343
15.6834
15.013393
14.409528
13.866446
13.379342
12.943417
12.554059
12.207756
11.901757
11.631586
11.393744
11.185586
11.004802
10.847915
10.712344
10.595832
10.496261
10.411614
10.339926
10.279631
10.229214
10.187384
10.15295
10.12493
10.102639
10.085694
10.073982
10.067635
10.066476
10.066198
10.065284
10.064018
10.062286
10.06001
10.057126
10.053597
10.049386
10.044386
10.038437
10.031327
10.022806
10.016035
10.011144
10.007606
10.005457
10.006126
10.013352
10.024851
1497.3779
1912.4643
1038.5792
633.20678
442.42359
318.03492
235.95699
182.2043
144.39074
118.84666
99.981058
86.064553
74.931917
65.966921
58.528831
52.317128
47.069291
42.607999
38.786925
35.487212
32.622867
30.123948
27.929487
25.992139
24.271004
22.736488
21.362499
20.12924
19.02078
18.024153
17.126151
16.315282
15.583049
14.922052
14.326554
13.791208
13.311316
12.882231
12.499277
12.158616
11.857972
11.592893
11.359727
11.155614
10.978632
10.825251
10.692818
10.579086
10.481962
10.399512
10.329735
10.271108
10.222128
10.18154
10.148174
10.121041
10.099435
10.082956
10.071456
10.064963
10.063241
10.062724
10.061596
10.060122
10.0582
10.05575
10.0527
10.049008
10.044644
10.039509
10.033442
10.026344
10.018081
10.011881
10.007512
10.004474
10.002571
10.003286
10.011089
10.020546
1515.999
1927.1988
1034.4967
630.42688
438.52452
316.7238
233.47259
181.37261
143.19727
118.41069
99.4624
85.699447
74.54165
65.584849
58.150085
51.947425
46.710744
42.262298
38.456366
35.172612
32.324194
29.841904
27.664217
25.743884
24.039519
22.521497
21.163398
19.945242
18.850831
17.867616
16.982671
16.184192
15.46369
14.813603
14.228256
13.702311
13.231147
12.810282
12.43511
12.10135
11.80712
11.548092
11.320566
11.121295
10.948796
10.799537
10.670785
10.560309
10.466016
10.386099
10.318511
10.261786
10.214434
10.175241
10.143071
10.116935
10.09611
10.080178
10.068976
10.06246
10.060316
10.05951
10.058137
10.056424
10.054281
10.05163
10.048389
10.04451
10.039966
10.034678
10.028469
10.021334
10.013454
10.007839
10.004006
10.001458
9.9998483
10.000673
10.008287
10.016369
1531.8754
1947.7359
1034.3181
627.76407
434.70642
314.78331
230.902
180.16704
141.86841
117.74539
98.811065
85.179686
74.028922
65.086158
57.667923
51.483991
46.267442
41.839586
38.055386
34.79381
31.966809
29.506088
27.349689
25.449796
23.765911
22.267857
20.928894
19.728946
18.651455
17.68424
16.814807
16.031021
15.324448
14.687331
14.114066
13.599319
13.138529
12.727352
12.361397
12.036038
11.74934
11.497325
11.276419
11.08284
10.915498
10.770967
10.646427
10.539673
10.448576
10.371509
10.306371
10.251766
10.206219
10.168558
10.137695
10.112654
10.092697
10.077386
10.066552
10.060113
10.057668
10.056532
10.054887
10.052907
10.050518
10.047639
10.044186
10.040099
10.035352
10.029892
10.023535
10.016295
10.008993
10.003975
10.000678
9.9986101
9.9973411
9.9982976
10.005533
10.012408
1538.7428
1971.4083
1035.138
624.74334
430.86023
312.19526
228.274
178.72176
140.39017
116.85914
98.042099
84.51282
73.393758
64.471985
57.081659
50.925621
45.737745
41.338224
37.581533
34.348314
31.54834
29.114229
26.984013
25.106105
23.446572
21.972212
20.6559
19.477555
18.420172
17.47183
16.620641
15.854108
15.163907
14.542044
13.982996
13.481429
13.032837
12.632964
12.27769
11.96299
11.684994
11.440932
11.227597
11.040666
10.879122
10.739874
10.620049
10.517449
10.429871
10.355934
10.293469
10.241168
10.197574
10.16156
10.132095
10.108226
10.089208
10.074581
10.064165
10.057876
10.055242
10.053745
10.051804
10.049535
10.046876
10.043749
10.040067
10.035757
10.030789
10.025138
10.018651
10.011248
10.004736
10.000325
9.9975612
9.9959602
9.9950796
9.9961833
10.002744
10.00888
1554.1058
1995.7785
1031.8867
620.92158
425.91323
308.91527
224.64442
176.87851
138.49401
115.79479
97.150076
83.696705
72.628417
63.737087
56.385886
50.266299
45.115724
40.752892
37.026588
33.827852
31.060872
28.658768
26.560529
24.713468
23.082755
21.636274
20.346429
19.193283
18.159352
17.232834
16.402637
15.655904
14.984491
14.380117
13.837347
13.350851
12.916176
12.529155
12.185724
11.881836
11.613877
11.378785
11.173958
10.995166
10.840044
10.706578
10.592
10.493945
10.410175
10.3396
10.279992
10.230142
10.18862
10.15434
10.126336
10.103696
10.08567
10.071777
10.061817
10.055722
10.052985
10.051107
10.048852
10.046277
10.043331
10.03994
10.036014
10.031474
10.026273
10.020406
10.013827
10.006429
10.000725
9.996932
9.9946905
9.9935417
9.993071
9.9943539
10.000113
10.005651
1568.4205
2018.9143
1022.2884
616.0389
419.25364
305.22589
220.2518
174.59706
136.64835
114.53708
96.125204
82.726011
71.724869
62.873461
55.572476
49.493035
44.38733
40.070044
36.388739
33.233082
30.506775
28.143132
26.082552
24.270844
22.673717
21.259468
20.000096
18.875934
17.869018
16.967465
16.161094
15.436835
14.786749
14.202198
13.677849
13.208366
12.789349
12.416717
12.086565
11.794907
11.538045
11.312779
11.117028
10.946269
10.798275
10.671052
10.562584
10.469429
10.389772
10.322739
10.266135
10.218841
10.179475
10.146986
10.120482
10.099102
10.082103
10.068982
10.059506
10.053622
10.050838
10.048571
10.045989
10.043097
10.039852
10.036184
10.032006
10.027231
10.021799
10.015696
10.009021
10.001932
9.9969966
9.9938238
9.9920927
9.9913812
9.9913147
9.9927684
9.9977821
10.002599
1579.4936
2040.0161
1012.0305
610.11236
410.94287
301.13059
215.70991
172.09402
134.67867
113.1003
94.954328
81.593723
70.671213
61.860335
54.618584
48.600569
43.553573
39.293367
35.665788
32.561828
29.883893
27.565494
25.548788
23.778264
22.219779
20.842308
19.617658
18.526484
17.550368
16.677144
15.897227
15.198184
14.572034
14.009688
13.505914
13.055375
12.653725
12.296951
11.981317
11.702933
11.458188
11.243677
11.057699
10.895699
10.755297
10.634472
10.531766
10.443864
10.3689
10.305543
10.252094
10.207428
10.170267
10.139595
10.1146
10.094485
10.078526
10.066204
10.057233
10.051556
10.048747
10.046093
10.043176
10.03996
10.036408
10.032457
10.028022
10.023011
10.017358
10.011029
10.004195
9.9977855
9.9935831
9.9910233
9.9897883
9.9894995
9.9898385
9.9914291
9.9958266
10.000152
1592.2527
2060.4148
997.22001
602.53539
401.37095
296.61383
210.97174
169.34227
132.68688
111.48448
93.609651
80.268848
69.429052
60.690532
53.5271
47.585
42.610246
38.419017
34.8557
31.812903
29.191791
26.925819
24.959416
23.236098
21.721768
20.385484
19.200057
18.146109
17.20478
16.363612
15.611494
14.940439
14.340886
13.803176
13.322164
12.892501
12.509914
12.170439
11.87055
11.606471
11.374724
11.172482
10.996754
10.843907
10.711526
10.597463
10.500737
10.41811
10.34751
10.287954
10.238004
10.19605
10.161118
10.132263
10.108757
10.089889
10.074958
10.063442
10.055002
10.049516
10.046655
10.043629
10.040375
10.036835
10.032974
10.028736
10.024042
10.018798
10.012933
10.006438
9.9994312
9.9940124
9.9905065
9.988543
9.9877896
9.9879033
9.9886649
9.9904414
9.9942646
9.9981375
1604.4536
2078.7293
978.5737
594.0792
391.51006
291.69758
206.16333
166.39091
130.63978
109.66849
92.025104
78.733684
68.002371
59.35715
52.290786
46.441944
41.553921
37.444937
33.957182
30.985325
28.430177
26.224556
24.314782
22.645128
21.181119
19.888802
18.747268
17.735006
16.832569
16.027734
15.30934
14.668955
14.098468
13.587619
13.131301
12.724132
12.361978
12.040882
11.757581
11.508502
11.290087
11.099433
10.934437
10.791109
10.667086
10.560492
10.469725
10.392483
10.32647
10.270603
10.223763
10.18479
10.152131
10.125081
10.103021
10.085353
10.071415
10.060691
10.052807
10.047511
10.044514
10.041137
10.037549
10.03369
10.029523
10.024999
10.02005
10.014581
10.008509
10.001927
9.9952412
9.9906271
9.9877813
9.9863852
9.9861006
9.9865888
9.9877222
9.9897385
9.9932002
9.9967623
1616.5822
2091.1268
956.02161
585.05009
381.15032
286.42207
201.36102
163.2439
128.46672
107.55549
90.183057
76.976043
66.377301
57.851103
50.902904
45.166198
40.38124
36.368603
32.969075
30.078248
27.599027
25.462737
23.613764
22.00441
20.597775
19.359176
18.266828
17.301039
16.441757
15.676828
14.994904
14.387735
13.848122
13.365999
12.93599
12.552611
12.211967
11.910074
11.643911
11.410268
11.205681
11.027126
10.872873
10.739106
10.62336
10.523583
10.438777
10.366866
10.305838
10.253773
10.209919
10.173511
10.143345
10.118121
10.097453
10.080918
10.06792
10.057942
10.050628
10.045562
10.042287
10.038583
10.034671
10.0305
10.026036
10.021231
10.016028
10.010353
10.004109
9.9974023
9.9915408
9.9876613
9.9854162
9.9845443
9.9847129
9.9855552
9.9869951
9.9892897
9.9926147
9.9959931
1628.7606
2092.2633
929.75935
575.38246
370.40856
280.81494
196.63895
159.81966
126.04569
105.15065
88.054834
74.97723
64.540664
56.161761
49.355733
43.752453
39.08914
35.18777
31.890912
29.088849
26.695926
24.639305
22.865503
21.324539
19.982248
18.803052
17.765204
16.850001
16.03775
15.316146
14.673637
14.101904
13.593122
13.141005
12.738482
12.379779
12.061381
11.77926
11.530542
11.312518
11.121848
10.956242
10.812622
10.688297
10.580907
10.488123
10.409057
10.34209
10.285423
10.23755
10.196693
10.162649
10.134594
10.111395
10.092106
10.076622
10.064499
10.055193
10.048415
10.043671
10.039951
10.035939
10.031715
10.027246
10.022497
10.017423
10.011969
10.006093
9.9997768
9.9931824
9.9883316
9.9851269
9.9834189
9.9830144
9.983609
9.9847915
9.9864644
9.9890296
9.9924729
9.9957752
1641.1074
2070.6863
900.05087
565.10567
359.32158
274.88175
191.99052
155.98969
123.29886
102.40832
85.609871
72.713891
62.475898
54.277645
47.641698
42.195213
37.675171
33.896976
30.718948
28.026776
25.734322
23.768736
22.079006
20.61467
19.343272
18.229701
17.251387
16.388625
15.626403
14.950687
14.349591
13.815405
13.340569
12.918876
12.544329
12.210564
11.914558
11.652315
11.420897
11.218319
11.040976
10.886926
10.753815
10.638684
10.539485
10.454198
10.380795
10.318582
10.265878
10.221667
10.18414
10.152384
10.126197
10.104733
10.086986
10.072494
10.061179
10.05247
10.046107
10.04162
10.037502
10.033189
10.028669
10.023915
10.018895
10.013569
10.007884
10.001804
9.9954557
9.9896081
9.98559
9.9830244
9.9817954
9.9817934
9.9827658
9.9842762
9.9861438
9.9889225
9.9926634
9.9960248
1653.707
2035.4159
869.06813
554.26509
347.94532
268.53461
187.10653
151.72496
120.11093
99.279316
82.813138
70.160336
60.166472
52.18891
45.754426
40.485629
36.132839
32.509166
29.470956
26.904579
24.727081
22.864318
21.268022
19.8882
18.691242
17.647964
16.733741
15.929139
15.218883
14.590704
14.032079
13.535856
13.094825
12.703284
12.356271
12.047145
11.773154
11.530591
11.316184
11.128666
10.96441
10.82149
10.698314
10.591903
10.50018
10.421488
10.354139
10.296515
10.247503
10.206595
10.171989
10.142769
10.118285
10.098353
10.081947
10.068549
10.057971
10.049813
10.043749
10.039398
10.03493
10.030326
10.025528
10.020507
10.01523
10.009667
10.003782
9.9975657
9.9912568
9.9865516
9.9833004
9.9813339
9.9805425
9.9808812
9.9821592
9.9839638
9.9860437
9.9889875
9.9930116
9.9966071
1666.3851
2004.2281
837.50826
542.78429
336.28063
261.23214
182.05872
146.91915
116.36426
95.703049
79.627652
67.291499
57.596989
49.888074
43.682922
38.637283
34.485851
31.041892
28.16551
25.742505
23.693425
21.944609
20.446737
19.158325
18.043759
17.074128
16.226149
15.480855
14.823094
14.242419
13.72623
13.267703
12.860092
12.497802
12.176065
11.890764
11.637921
11.414442
11.217481
11.044329
10.892709
10.760344
10.646405
10.548231
10.463566
10.390872
10.328673
10.27561
10.230444
10.19252
10.160566
10.133581
10.110928
10.092328
10.077141
10.064759
10.054864
10.047244
10.041412
10.037002
10.032244
10.027361
10.022299
10.01703
10.011516
10.00573
9.999667
9.993428
9.9878276
9.9839581
9.9814174
9.9800147
9.9796374
9.9802702
9.9817733
9.9837972
9.9861069
9.989198
9.9932884
9.9971477
1678.6416
1956.2416
804.86844
530.35737
324.2225
252.7367
176.64701
141.45019
111.94483
91.615736
76.019211
64.087568
54.751042
47.363748
41.455935
36.675925
32.761117
29.524003
26.829794
24.566088
22.653186
21.02785
19.638703
18.445349
17.414955
16.520164
15.738697
15.052577
14.446506
13.910619
13.435643
13.013502
12.638081
12.304337
12.007966
11.74506
11.512099
11.306073
11.124433
10.964902
10.825417
10.703937
10.598533
10.507942
10.429835
10.362736
10.305286
10.256297
10.214698
10.179518
10.149964
10.12505
10.104127
10.086701
10.072557
10.061018
10.051828
10.044734
10.039178
10.034458
10.029461
10.024318
10.019005
10.013502
10.007773
10.001794
9.9956164
9.9895085
9.9849842
9.9818262
9.9798913
9.9790059
9.9790331
9.9799319
9.981598
9.983741
9.9862252
9.9894903
9.9935785
9.9976321
1689.6738
1894.3647
770.57664
516.48083
311.00044
242.87852
170.54858
135.1717
106.74982
86.959916
71.965827
60.534486
51.651608
44.66911
39.114303
34.643808
30.999211
27.992093
25.492553
23.400684
21.637053
20.140148
18.862057
17.764931
16.818345
15.997076
15.279986
14.649529
14.093924
13.602312
13.166305
12.77859
12.433409
12.126141
11.853054
11.61087
11.396403
11.206734
11.039476
10.892394
10.763646
10.651625
10.554932
10.471206
10.399082
10.337098
10.28397
10.238588
10.199996
10.167643
10.1402
10.117097
10.097699
10.081521
10.068296
10.057482
10.048846
10.042176
10.036863
10.031817
10.026608
10.021234
10.015687
10.009959
10.004036
9.997896
9.9916757
9.9864005
9.9826618
9.98014
9.978694
9.9782389
9.978665
9.9798099
9.9816102
9.9838124
9.9863964
9.9898051
9.9938851
9.9980045
1698.2725
1836.4965
733.67203
500.54503
296.88705
231.44422
163.29055
127.91848
100.70889
81.714572
67.471288
56.68207
48.367675
41.868294
36.720976
32.595801
29.24721
26.483317
24.193909
22.280105
20.668205
19.300876
18.133262
17.130312
16.264396
15.513022
14.855808
14.279375
13.770774
13.320085
12.920187
12.564332
12.247206
11.964464
11.71268
11.489155
11.29143
11.116556
10.962446
10.82693
10.708154
10.605164
10.515577
10.438118
10.371353
10.313988
10.264805
10.222778
10.187051
10.156886
10.131348
10.109837
10.091796
10.076751
10.06436
10.054188
10.045995
10.039606
10.034441
10.029127
10.023719
10.018149
10.0124
10.006457
10.000351
9.9941659
9.9881626
9.983854
9.9808165
9.9788731
9.9778394
9.9776644
9.9784687
9.9798318
9.9817491
9.9839919
9.9866337
9.9901329
9.9942152
9.9982861
1701.6611
1775.5037
693.92505
480.81669
281.66078
218.11468
154.40526
119.56757
93.838184
75.94191
62.631349
52.64647
45.00085
39.050023
34.350617
30.592721
27.549654
25.042728
22.965597
21.229771
19.767177
18.525646
17.46432
16.551138
15.76084
15.07341
14.47268
13.945092
13.479662
13.066246
12.698982
12.371902
12.08021
11.819891
11.5876
11.380729
11.197905
11.036128
10.893626
10.768567
10.659147
10.563637
10.480612
10.408711
10.34668
10.293384
10.247727
10.208592
10.175507
10.147322
10.123437
10.103283
10.086395
10.072386
10.060736
10.051154
10.043367
10.037141
10.031976
10.026448
10.020847
10.015102
10.009197
10.003093
9.9967909
9.9905227
9.9854323
9.9817811
9.9793424
9.9779272
9.9773434
9.9773341
9.9783955
9.9799411
9.9819547
9.9842506
9.9869467
9.9904626
9.9945064
9.9984451
1695.0854
1708.7291
650.79961
454.96788
265.14509
202.55666
143.67356
110.16848
86.308897
69.783761
57.638977
48.577984
41.670622
36.308319
32.078516
28.696303
25.95782
23.705432
21.835449
20.270397
18.949226
17.825552
16.863075
16.033208
15.313292
14.685346
14.135022
13.650565
13.222241
12.842161
12.503809
12.202111
11.932818
11.692436
11.478009
11.286997
11.117223
10.966874
10.834217
10.7177
10.61585
10.527154
10.449932
10.383002
10.325143
10.275329
10.232892
10.196476
10.165376
10.138946
10.116535
10.097549
10.081711
10.068431
10.057408
10.048339
10.040983
10.03493
10.029535
10.023861
10.018079
10.012153
10.006096
9.9999167
9.9936598
9.987594
9.9832917
9.9801923
9.9781901
9.9771284
9.9768859
9.9773426
9.9784288
9.9801105
9.9821841
9.9845379
9.9873092
9.9908259
9.9947996
9.998586
1672.5221
1631.0176
604.53439
422.29001
247.36644
184.60137
131.35414
100.07226
78.482919
63.569066
52.713945
44.638809
38.4966
33.732823
29.973081
26.960004
24.513046
22.5018
20.825631
19.418146
18.22601
17.208795
16.33493
15.579428
14.922258
14.347306
13.841774
13.395785
13.000688
12.649541
12.336344
12.056614
11.806548
11.583034
11.383457
11.205572
11.047404
10.907176
10.783268
10.674185
10.57862
10.495748
10.423561
10.360987
10.30692
10.260345
10.220354
10.186116
10.156773
10.131765
10.110682
10.092779
10.077668
10.064998
10.054459
10.045813
10.038695
10.032774
10.027207
10.021429
10.015521
10.009447
10.003207
9.9968456
9.99059
9.9854232
9.981673
9.9790686
9.9774379
9.9766537
9.9766332
9.9773565
9.9785759
9.9803277
9.9824284
9.9848183
9.9876511
9.9911573
9.9950451
9.9986929
1625.8255
1538.3586
556.32539
383.5653
229.43896
164.55957
118.16171
89.912554
70.813709
57.614694
48.073886
40.98314
35.590841
31.40442
28.092538
25.428325
23.253495
21.455676
19.953327
18.68547
17.606686
16.682173
15.884846
15.193263
14.590145
14.06124
13.594097
13.180771
12.813571
12.487047
12.195212
11.934136
11.700406
11.49123
11.30425
11.13744
10.989018
10.857378
10.741043
10.638637
10.548868
10.470517
10.402404
10.343242
10.292059
10.247887
10.209913
10.177586
10.149848
10.126159
10.105982
10.088867
10.074395
10.062197
10.052076
10.043643
10.036672
10.030788
10.025061
10.019185
10.013197
10.007067
10.000792
9.9944217
9.988264
9.9837614
9.9804769
9.9782823
9.9769932
9.9764564
9.9764312
9.9774598
9.9787674
9.980564
9.9826779
9.9850877
9.987948
9.9914231
9.9952373
9.9987338
1547.0303
1435.389
507.30604
343.57298
205.51373
145.28725
105.02675
80.363726
63.743881
52.223974
43.927009
37.760764
33.059947
29.396001
26.483191
24.127162
22.192601
20.583384
19.23004
18.081606
17.099049
16.252646
15.519114
14.87998
14.320358
13.828115
13.393254
13.007496
12.664117
12.357524
12.083079
11.837132
11.61662
11.419014
11.242169
11.084235
10.943569
10.818677
10.708166
10.610727
10.525134
10.450307
10.385537
10.329215
10.280483
10.238427
10.202237
10.171176
10.144581
10.121807
10.102372
10.085848
10.071946
10.060174
10.050275
10.041997
10.035086
10.029172
10.023279
10.01727
10.011158
10.004931
9.9986053
9.9923026
9.9866286
9.9825555
9.9796199
9.9777044
9.9766575
9.9763293
9.9766744
9.9775627
9.9789774
9.9807863
9.9829068
9.9853243
9.988165
9.9915358
9.9952222
9.9986573
1438.9003
1390.6571
461.48672
296.05303
181.79823
127.25557
93.182336
71.921809
57.634335
47.681967
40.485215
35.118594
31.004515
27.775841
25.190638
23.085004
21.344798
19.888389
18.655204
17.603065
16.698316
15.915307
15.233785
14.637557
14.113485
13.650832
13.24071
12.875803
12.550173
12.259349
11.99841
11.76417
11.553819
11.365055
11.195918
11.044713
10.909935
10.790212
10.684264
10.590876
10.508877
10.437121
10.374484
10.320036
10.272831
10.232023
10.196843
10.166629
10.140913
10.118859
10.100034
10.083994
10.070369
10.058838
10.049114
10.040946
10.034077
10.028129
10.022113
10.015983
10.009743
10.003395
9.9969827
9.9907206
9.9855434
9.9817791
9.9791189
9.9774201
9.9765412
9.976283
9.9767907
9.9777516
9.9791915
9.9810056
9.983127
9.9855504
9.9883571
9.991601
9.9951257
9.9985226
1312.4741
1218.9278
421.92965
253.84077
159.81004
112.25337
83.395016
65.112536
52.809683
44.182854
37.897216
33.167231
29.507786
26.610087
24.270136
22.349121
20.749913
19.402885
18.257005
17.274067
16.425032
15.687295
15.042956
14.477558
13.979223
13.538075
13.146085
12.796508
12.483781
12.203307
11.951323
11.724691
11.520828
11.337574
11.173094
11.025794
10.894256
10.777185
10.673373
10.581691
10.501118
10.430923
10.369551
10.316166
10.269849
10.229783
10.19521
10.165449
10.139891
10.117999
10.099288
10.083339
10.069781
10.058297
10.048605
10.040457
10.033598
10.027648
10.021613
10.015445
10.009149
10.002724
9.9962245
9.9899228
9.9849846
9.9813816
9.9788701
9.9773047
9.97657
9.9764084
9.9769217
9.9779362
9.9793925
9.9812144
9.9833486
9.9857852
9.9885593
9.9916847
9.9950571
9.9984209
1202.0414
1095.3542
389.66823
223.35606
143.39259
101.2273
76.148142
60.152404
49.358311
41.72431
36.106024
31.837969
28.505536
25.844435
23.678858
21.888378
20.388148
19.116961
18.029709
17.092486
16.27931
15.56989
14.948086
14.400937
13.918319
13.489911
13.108462
12.767599
12.462088
12.187574
11.940468
11.717809
11.517149
11.336445
11.173962
11.028197
10.89781
10.781572
10.678333
10.586996
10.506508
10.435855
10.374076
10.32024
10.273475
10.232973
10.197986
10.16784
10.141923
10.119692
10.100666
10.084422
10.070591
10.058849
10.048917
10.040545
10.033487
10.027403
10.021463
10.01536
10.009153
10.002826
9.9964306
9.9901998
9.9851583
9.9815156
9.9789739
9.9773949
9.976661
9.976506
9.9770343
9.9780464
9.9795013
9.9813247
9.983475
9.9859327
9.9886921
9.9917316
9.9949934
9.9983505
1156.2171
1041.5421
365.84638
206.44307
132.61199
93.722355
70.728702
56.194536
46.405181
39.472498
34.354961
30.449767
27.387731
24.932512
22.926846
21.262628
19.86347
18.674104
17.653708
16.77156
16.004107
15.332946
14.7434
14.223532
13.763454
13.354889
12.990823
12.66535
12.373504
12.111144
11.874836
11.661743
11.469521
11.296218
11.140188
11.000012
10.874432
10.762303
10.662555
10.574165
10.496151
10.427563
10.367487
10.315049
10.269427
10.22985
10.195608
10.166055
10.140606
10.118738
10.099988
10.083947
10.070257
10.058606
10.048721
10.040359
10.033279
10.027147
10.021137
10.014971
10.008703
10.002323
9.9958914
9.9896822
9.9848806
9.9813536
9.9788974
9.9773614
9.976619
9.9764252
9.9770634
9.9780474
9.9795002
9.9813195
9.9834746
9.9859376
9.9886894
9.9917016
9.9949272
9.9983048
37026.879
79705.78
39464.75
10034.197
1234.7008
612.65409
435.8806
350.87727
289.11062
234.91094
191.67214
158.80885
134.29757
116.05907
102.09891
90.742305
81.110667
72.853877
65.764473
59.647236
54.328661
49.672367
45.572941
41.945085
38.723681
35.844186
33.261273
30.935031
28.833645
26.931993
25.208659
23.644567
22.223055
20.929445
19.752213
18.681674
17.709118
16.826826
16.027751
15.305473
14.654399
14.06899
13.544193
13.075448
12.658274
12.288449
11.962152
11.675357
11.424386
11.20589
11.016598
10.853391
10.713292
10.593773
10.492318
10.406665
10.33635
10.281328
10.241637
10.220028
10.212836
10.210758
10.208605
10.205664
10.202279
10.198483
10.194052
10.187389
10.177941
10.167061
10.15202
10.138298
10.109511
10.093707
10.070824
10.071337
10.037018
10.056143
9.993762
10.017523
22227.56
69672.196
27799.532
4624.3924
941.01681
532.94294
399.86578
321.87381
263.33637
212.18761
174.17964
145.50789
124.34729
108.52748
96.152023
85.806938
76.946565
69.344075
62.803296
57.134781
52.183523
47.832047
43.988021
40.575558
37.53282
34.806735
32.355854
30.14285
28.139626
26.323585
24.674969
23.176098
21.811619
20.568023
19.434998
18.403585
17.465654
16.614032
15.842109
15.143878
14.514111
13.947501
13.439303
12.985194
12.580869
12.222305
11.905856
11.6276
11.384033
11.171936
10.988139
10.829629
10.693532
10.577429
10.478887
10.395674
10.326876
10.273183
10.234726
10.214368
10.207793
10.205892
10.203773
10.200903
10.19761
10.193899
10.189701
10.183764
10.175001
10.164609
10.150129
10.136603
10.108701
10.093217
10.070381
10.071042
10.036936
10.05661
9.994287
10.017973
24193.409
49312.833
16446.685
2360.2242
832.83387
506.57216
388.34534
306.63076
250.88629
201.49433
166.72106
139.58876
119.82853
104.9116
93.115432
83.163214
74.658088
67.37007
61.093134
55.644349
50.879209
46.687607
42.981524
39.688255
36.746986
34.110426
31.738378
29.594465
27.652616
25.891147
24.290997
22.835155
21.508946
20.299446
19.197035
18.19306
17.279714
16.450136
15.697946
15.017384
14.403438
13.85092
13.355289
12.912362
12.517938
12.168131
11.859403
11.587896
11.350234
11.143282
10.963939
10.809268
10.676487
10.563271
10.467106
10.385931
10.318457
10.26579
10.22828
10.208879
10.202764
10.201019
10.198953
10.196167
10.19297
10.189351
10.185222
10.180003
10.171959
10.162079
10.148184
10.134868
10.107909
10.092657
10.069838
10.070653
10.03678
10.056981
9.994854
10.018443
32019.007
27482.594
8512.524
1498.4909
761.1125
482.97123
374.72992
291.75303
239.69091
190.96029
159.71391
133.76165
115.50317
101.43516
90.212341
80.649515
72.491712
65.49918
59.468841
54.226148
49.635587
45.593624
42.016485
38.834701
35.990688
33.436553
31.138263
29.059559
27.175935
25.466403
23.912565
22.498018
21.208697
20.032214
18.959593
17.982419
17.09319
16.285322
15.552641
14.889614
14.291421
13.752976
13.269939
12.838248
12.453799
12.112837
11.811925
11.547264
11.315604
11.11389
10.939089
10.788344
10.659028
10.548674
10.454961
10.375881
10.309919
10.258299
10.221771
10.203335
10.197697
10.196114
10.194106
10.191411
10.188315
10.184791
10.180754
10.176001
10.168705
10.159363
10.146077
10.132981
10.106989
10.091973
10.06921
10.070173
10.036559
10.057268
9.9954502
10.018936
36423.621
20141.856
5470.2736
1269.9555
723.44563
462.0358
363.90054
279.38186
231.37573
182.82734
154.63331
129.13383
112.19275
98.658206
87.861999
78.590145
70.707774
63.945613
58.108208
53.028039
48.576545
44.654865
41.182206
38.091477
35.327052
32.843634
30.605283
28.581546
26.747448
25.082415
23.568553
22.189913
20.932909
19.785566
18.739446
17.786248
16.918738
16.130543
15.415646
14.768696
14.185026
13.65962
13.188315
12.767138
12.392065
12.059455
11.765952
11.507803
11.281879
11.085189
10.914764
10.767825
10.641831
10.534272
10.442948
10.365914
10.301556
10.250923
10.215338
10.197678
10.192627
10.191198
10.189256
10.186657
10.183665
10.180238
10.176291
10.171794
10.165272
10.156492
10.143834
10.130973
10.10596
10.091147
10.068495
10.069598
10.036276
10.057475
9.99607
10.019465
38541.774
16973.721
3891.6485
1188.0315
698.76125
442.44838
355.95118
269.18043
224.83494
176.09684
150.57661
125.14253
109.43539
96.238344
85.814756
76.785978
69.140896
62.573163
56.899982
51.95907
47.627409
43.809776
40.42781
37.416423
34.721768
32.299946
30.115114
28.140112
26.350045
24.724815
23.246889
21.900687
20.673031
19.55229
18.530496
17.599398
16.752015
15.982136
15.28387
14.65203
14.082067
13.569017
13.108882
12.697752
12.331671
12.007101
11.720755
11.468917
11.248574
11.056789
10.89066
10.747522
10.624707
10.519897
10.430936
10.355929
10.293282
10.243603
10.208944
10.192102
10.187565
10.18627
10.184399
10.181903
10.179018
10.17569
10.171838
10.167413
10.161645
10.153453
10.141443
10.128836
10.104784
10.090194
10.06769
10.068936
10.035924
10.057609
9.9967119
10.020022
39866.464
14158.301
3104.0256
1137.0922
681.40035
428.28617
350.11664
260.80427
219.68618
170.63341
147.31515
121.73624
107.14944
94.13496
84.038232
75.206847
67.763847
61.359449
55.825623
51.00365
46.775019
43.047318
39.744123
36.801976
34.168472
31.801015
29.665102
27.732194
25.981192
24.391605
22.946033
21.629178
20.428202
19.331764
18.332311
17.421584
16.592846
15.84001
15.157288
14.539632
13.982591
13.481234
13.031718
12.630171
12.2727
11.955859
11.676413
11.430679
11.21576
11.028771
10.866918
10.727369
10.607689
10.505587
10.418959
10.345956
10.285063
10.236357
10.202604
10.186609