/*--------------------------------*- C++ -*----------------------------------*\
| =========                 |                                                 |
| \\      /  F ield         | OpenFOAM: The Open Source CFD Toolbox           |
|  \\    /   O peration     | Version:  2512                                  |
|   \\  /    A nd           | Website:  www.openfoam.com                      |
|    \\/     M anipulation  |                                                 |
\*---------------------------------------------------------------------------*/
FoamFile
{
    version     2.0;
    format      ascii;
    arch        "LSB;label=32;scalar=64";
    class       volScalarField;
    location    "0.143";
    object      p;
}
// * * * * * * * * * * * * * * * * * * * * * * * * * * * * * * * * * * * * * //

dimensions      [1 -1 -2 0 0 0 0];

internalField   nonuniform List<scalar> 
16000
(
89619.332
89745.275
89757.225
89891.421
89917.626
90044.728
90095.255
90211.787
90285.615
90396.578
90488.63
90599.559
90705.68
90820.96
90938.148
91060.809
91187.558
91319.003
91455.024
91595.713
91741.08
91891.135
92045.861
92205.218
92369.142
92537.537
92710.281
92887.218
93068.16
93252.886
93441.137
93632.622
93827.013
94023.949
94223.036
94423.852
94625.944
94828.838
95032.041
95235.045
95437.332
95638.384
95837.685
96034.726
96229.018
96420.089
96607.497
96790.827
96969.704
97143.788
97312.78
97476.423
97634.503
97786.847
97933.322
98073.838
98208.34
98336.809
98459.256
98575.727
98686.292
98791.042
98890.091
98983.57
99071.628
99154.424
99232.135
99304.945
99373.05
99436.652
99495.958
99551.183
99602.557
99650.314
99694.646
99736.108
99777.103
99797.72
99881.963
99809.425
89251.322
89394.258
89403.695
89550.053
89577.917
89716.023
89768.991
89896.88
89974.618
90095.769
90194.301
90314.258
90428.785
90553.024
90679.573
90811.822
90948.574
91090.316
91236.97
91388.591
91545.178
91706.71
91873.141
92044.398
92220.375
92400.938
92585.914
92775.1
92968.253
93165.094
93365.304
93568.529
93774.376
93982.419
94192.199
94403.227
94614.992
94826.96
95038.588
95249.321
95458.606
95665.897
95870.66
96072.381
96270.573
96464.782
96654.588
96839.614
97019.527
97194.037
97362.902
97525.925
97682.956
97833.885
97978.645
98117.205
98249.571
98375.778
98495.89
98609.997
98718.208
98820.649
98917.461
99008.799
99094.829
99175.722
99251.659
99322.829
99389.422
99451.637
99509.677
99563.747
99614.054
99660.816
99704.336
99745.28
99782.183
99814.505
99872.846
99827.253
88915.99
89074.416
89083.592
89243.257
89271.318
89423.181
89477.962
89618.206
89700.914
89832.643
89939.026
90068.654
90192.839
90327.038
90464.12
90607.128
90755.067
90908.3
91066.761
91230.468
91399.389
91573.469
91752.627
91936.746
92125.678
92319.237
92517.199
92719.3
92925.233
93134.651
93347.164
93562.343
93779.719
93998.79
94219.022
94439.854
94660.709
94880.995
95100.114
95317.472
95532.487
95744.593
95953.251
96157.957
96358.243
96553.689
96743.919
96928.611
97107.492
97280.344
97446.997
97607.331
97761.272
97908.79
98049.889
98184.612
98313.03
98435.239
98551.357
98661.521
98765.882
98864.602
98957.848
99045.797
99128.629
99206.527
99279.676
99348.263
99412.476
99472.506
99528.547
99580.785
99629.411
99674.662
99716.863
99756.163
99791.458
99827.378
99869.759
99845.557
88617.726
88787.011
88796.863
88971.961
88999.489
89167.648
89224.704
89379.282
89467.841
89611.665
89727.34
89867.953
90003.367
90148.923
90297.986
90453.146
90613.616
90779.642
90951.164
91128.167
91310.59
91498.347
91691.315
91889.333
92092.198
92299.665
92511.442
92727.188
92946.519
93169
93394.154
93621.459
93850.358
94080.259
94310.542
94540.572
94769.699
94997.273
95222.65
95445.205
95664.337
95879.478
96090.105
96295.74
96495.962
96690.403
96878.759
97060.783
97236.287
97405.141
97567.269
97722.643
97871.281
98013.24
98148.608
98277.506
98400.076
98516.477
98626.884
98731.481
98830.461
98924.017
99012.344
99095.636
99174.087
99247.886
99317.219
99382.27
99443.219
99500.247
99553.53
99603.232
99649.535
99692.688
99732.887
99769.997
99804.12
99839.602
99872.469
99862.712
88359.266
88543.4
88550.15
88743.913
88770.355
88956.797
89016.016
89186.681
89282.306
89439.587
89566.277
89718.994
89867.069
90025.139
90187.346
90355.788
90529.901
90709.841
90895.557
91087.001
91284.082
91486.666
91694.575
91907.582
92125.411
92347.73
92574.156
92804.251
93037.524
93273.436
93511.398
93750.783
93990.926
94231.138
94470.71
94708.925
94945.069
95178.443
95408.37
95634.21
95855.367
96071.297
96281.516
96485.606
96683.216
96874.067
97057.947
97234.712
97404.283
97566.64
97721.813
97869.884
98010.97
98145.223
98272.822
98393.966
98508.867
98617.749
98720.838
98818.363
98910.553
98997.63
99079.809
99157.298
99230.3
99299.005
99363.598
99424.254
99481.143
99534.431
99584.271
99630.802
99674.208
99714.713
99752.323
99786.93
99819.553
99852.571
99878.812
99880.389
88143.592
88345.265
88350.179
88564.85
88590.336
88797.065
88858.681
89047.18
89151.078
89322.491
89461.355
89626.652
89788.31
89959.766
90136.136
90319.028
90508.053
90703.282
90904.633
91112.003
91325.232
91544.112
91768.378
91997.705
92231.712
92469.953
92711.924
92957.061
93204.746
93454.307
93705.029
93956.161
94206.925
94456.527
94704.171
94949.069
95190.455
95427.601
95659.821
95886.491
96107.051
96321.016
96527.98
96727.617
96919.686
97104.023
97280.543
97449.232
97610.138
97763.37
97909.08
98047.465
98178.749
98303.182
98421.03
98532.568
98638.077
98737.834
98832.113
98921.181
99005.294
99084.696
99159.616
99230.27
99296.862
99359.58
99418.601
99474.087
99526.195
99575.072
99620.842
99663.624
99703.602
99740.926
99775.427
99807.254
99837.943
99867.392
99888.291
99899.223
87970.868
88193.4
88195.617
88434.912
88459.493
88690.484
88755.13
88962.895
89074.97
89259.972
89412.125
89590.843
89767.643
89954.204
90146.614
90345.972
90551.97
90764.57
90983.62
91208.927
91440.239
91677.238
91919.543
92166.702
92418.198
92673.44
92931.775
93192.485
93454.797
93717.891
93980.91
94242.97
94503.179
94760.646
95014.5
95263.905
95508.07
95746.271
95977.855
96202.253
96418.989
96627.682
96828.045
97019.893
97203.127
97377.74
97543.798
97701.439
97850.86
97992.307
98126.062
98252.437
98371.765
98484.388
98590.65
98690.896
98785.461
98874.67
98958.831
99038.238
99113.167
99183.873
99250.589
99313.533
99372.902
99428.878
99481.621
99531.281
99577.996
99621.886
99663.046
99701.582
99737.669
99771.339
99802.304
99831.112
99859.362
99884.351
99900.772
99920.211
87835.519
88082.56
88080.581
88349.502
88370.885
88628.283
88696.029
88923.003
89047.068
89248.469
89417.803
89612.926
89807.999
90012.655
90223.949
90442.558
90668.213
90900.773
91140.001
91385.593
91637.175
91894.292
92156.413
92422.923
92693.132
92966.272
93241.507
93517.938
93794.618
94070.562
94344.764
94616.214
94883.916
95146.904
95404.264
95655.147
95898.788
96134.516
96361.766
96580.086
96789.137
96988.698
97178.656
97359.006
97529.835
97691.317
97843.698
97987.281
98122.42
98249.5
98368.931
98481.137
98586.542
98685.57
98778.633
98866.127
98948.43
99025.897
99098.858
99167.621
99232.469
99293.657
99351.415
99405.952
99457.453
99506.083
99551.987
99595.294
99636.118
99674.553
99710.663
99744.549
99776.355
99805.964
99833.066
99858.679
99883.994
99903.793
99916.463
99943.861
87736.709
88012.207
88005.916
88311.123
88326.905
88613.189
88686.941
88936.186
89077.255
89297.32
89487.328
89701.652
89917.977
90143.766
90376.909
90617.73
90865.929
91121.243
91383.302
91651.654
91925.757
92204.975
92488.576
92775.74
93065.561
93357.053
93649.165
93940.795
94230.807
94518.05
94801.376
95079.67
95351.864
95616.963
95874.061
96122.364
96361.197
96590.019
96808.426
97016.153
97213.069
97399.168
97574.563
97739.469
97894.19
98039.101
98174.635
98301.268
98419.502
98529.855
98632.849
98728.999
98818.808
98902.76
98981.311
99054.893
99123.907
99188.72
99249.67
99307.064
99361.177
99412.256
99460.517
99506.15
99549.322
99590.178
99628.838
99665.411
99699.983
99732.615
99763.349
99792.283
99819.501
99844.73
99867.759
99890.071
99911.975
99926.078
99935.773
99970.611
87677.9
87986.584
87976.915
88319.298
88334.458
88653.465
88738.81
89013.306
89174.275
89415.072
89629.407
89866.135
90106.995
90357.339
90615.661
90881.978
91155.886
91436.953
91724.624
92018.244
92317.042
92620.14
92926.551
93235.194
93544.9
93854.43
94162.492
94467.77
94768.938
95064.698
95353.796
95635.057
95907.408
96169.898
96421.721
96662.226
96890.928
97107.508
97311.812
97503.839
97683.73
97851.753
98008.281
98153.777
98288.772
98413.847
98529.615
98636.708
98735.758
98827.392
98912.217
98990.818
99063.745
99131.517
99194.615
99253.479
99308.513
99360.081
99408.508
99454.088
99497.077
99537.701
99576.152
99612.596
99647.176
99680.009
99711.191
99740.803
99768.902
99795.516
99820.673
99844.463
99866.877
99887.508
99906.383
99925.34
99943.375
99951.549
99959.253
100000.9
87666.071
88014.169
88000.502
88383.606
88402.673
88757.926
88857.915
89159.755
89346.406
89610.775
89853.703
90116.809
90385.999
90664.786
90952.028
91247.454
91550.482
91860.443
92176.525
92497.786
92823.156
93151.438
93481.326
93811.42
94140.249
94466.293
94788.016
95103.893
95412.447
95712.282
96002.114
96280.805
96547.383
96801.065
97041.267
97267.607
97479.905
97678.169
97862.578
98033.467
98191.299
98336.645
98470.157
98592.543
98704.55
98806.945
98900.493
98985.948
99064.042
99135.472
99200.898
99260.938
99316.161
99367.093
99414.209
99457.939
99498.668
99536.738
99572.448
99606.062
99637.809
99667.882
99696.444
99723.631
99749.554
99774.3
99797.94
99820.523
99842.074
99862.592
99882.101
99900.669
99918.161
99934.1
99948.876
99964.452
99978.156
99980.366
99987.174
100035.2
87708.037
88102.987
88085.494
88516.793
88541.026
88935.706
89055.121
89386.215
89604.29
89895.605
90171.61
90465.72
90767.599
91079.238
91399.604
91728.101
92063.859
92405.872
92752.969
93103.824
93456.972
93810.821
94163.683
94513.797
94859.364
95198.587
95529.71
95851.064
96161.105
96458.459
96741.953
97010.641
97263.819
97501.034
97722.079
97926.979
98115.971
98289.476
98448.077
98592.478
98723.481
98841.956
98948.812
99044.976
99131.37
99208.901
99278.441
99340.821
99396.823
99447.176
99492.551
99533.562
99570.768
99604.668
99635.711
99664.292
99690.76
99715.418
99738.528
99760.313
99780.963
99800.635
99819.455
99837.523
99854.918
99871.695
99887.894
99903.535
99918.609
99933.094
99947.015
99960.392
99972.949
99984.245
99995.109
100007.29
100016.23
100012.76
100019.89
100073.46
87804.553
88255.062
88234.235
88720.298
88753.111
89191.662
89338.425
89701.548
89958.472
90281.735
90596.179
90926.928
91266.693
91616.243
91974.412
92340.176
92712.24
93089.133
93469.198
93850.618
94231.441
94609.612
94983.013
95349.506
95706.988
96053.447
96387.014
96706.021
97009.043
97294.934
97562.85
97812.258
98042.928
98254.917
98448.544
98624.354
98783.079
98925.602
99052.916
99166.088
99266.226
99354.453
99431.879
99499.588
99558.618
99609.951
99654.509
99693.142
99726.636
99755.702
99780.985
99803.061
99822.445
99839.589
99854.89
99868.694
99881.296
99892.949
99903.866
99914.224
99924.169
99933.814
99943.245
99952.527
99961.7
99970.791
99979.809
99988.741
99997.546
100006.2
100014.71
100023.03
100030.76
100037.61
100044.86
100053.62
100057.49
100049.05
100057.74
100115.43
87962.063
88478.502
88455.308
89003.776
89051.247
89537.832
89721.178
90119.872
90423.528
90785.135
91144.162
91518.084
91901.7
92294.708
92695.531
93102.555
93513.892
93927.456
94340.977
94752.039
95158.126
95556.676
95945.147
96321.091
96682.227
97026.515
97352.215
97657.938
97942.673
98205.798
98447.074
98666.618
98864.868
99042.536
99200.561
99340.054
99462.254
99568.474
99660.071
99738.403
99804.808
99860.577
99906.94
99945.053
99975.992
100000.75
100020.23
100035.24
100046.54
100054.77
100060.51
100064.27
100066.51
100067.6
100067.87
100067.61
100067.06
100066.39
100065.78
100065.34
100065.19
100065.37
100065.95
100066.94
100068.36
100070.19
100072.43
100075.01
100077.88
100081.02
100084.42
100087.92
100091.04
100093.8
100097.8
100103.09
100101.75
100089.53
100101
100160.82
88187.498
88782.948
88759.876
89379.068
89448.615
89987.21
90218.397
90657.818
91017.24
91425.642
91836.714
92261.302
92695.284
93137.3
93585.103
94036.308
94488.257
94938.095
95382.806
95819.291
96244.446
96655.262
97048.927
97422.926
97775.122
98103.826
98407.831
98686.425
98939.381
99166.917
99369.648
99548.521
99704.751
99839.752
99955.075
100052.35
100133.24
100199.38
100252.4
100293.82
100325.09
100347.57
100362.52
100371.06
100374.25
100373
100368.15
100360.44
100350.52
100338.95
100326.22
100312.76
100298.93
100285.03
100271.31
100257.98
100245.22
100233.15
100221.88
100211.47
100201.99
100193.44
100185.84
100179.18
100173.43
100168.56
100164.51
100161.22
100158.61
100156.65
100155.31
100154.31
100153.17
100152.31
100153.45
100155.2
100148.65
100134.25
100149.75
100209.04
88487.891
89177.859
89157.359
89856.968
89960.058
90556.498
90850.103
91338.649
91764.325
92229.777
92701.219
93184.104
93674.515
94169.973
94667.301
95163.113
95653.768
96135.47
96604.385
97056.769
97489.116
97898.292
98281.655
98637.143
98963.321
99259.396
99525.189
99761.086
99967.962
100147.09
100300.07
100428.7
100534.95
100620.84
100688.41
100739.66
100776.53
100800.82
100814.26
100818.42
100814.73
100804.52
100788.95
100769.06
100745.8
100719.98
100692.3
100663.39
100633.79
100603.94
100574.23
100544.99
100516.48
100488.92
100462.48
100437.3
100413.48
100391.09
100370.17
100350.74
100332.82
100316.38
100301.39
100287.8
100275.57
100264.64
100254.91
100246.3
100238.74
100232.18
100226.55
100221.45
100216.52
100212.57
100211.19
100209.36
100197.81
100182.67
100203.44
100259.46
88871.44
89674.311
89661.093
90456.163
90609.24
91273.318
91646.445
92194.948
92697.67
93230.801
93770.604
94318.317
94869.439
95420.092
95965.787
96501.83
97023.409
97525.799
98004.564
98455.756
98876.076
99262.999
99614.829
99930.71
100210.58
100455.09
100665.5
100843.55
100991.33
101111.2
101205.62
101277.14
101328.25
101361.39
101378.87
101382.84
101375.31
101358.1
101332.87
101301.09
101264.09
101223.03
101178.93
101132.7
101085.1
101036.79
100988.36
100940.26
100892.92
100846.65
100801.75
100758.41
100716.83
100677.12
100639.38
100603.69
100570.06
100538.52
100509.06
100481.65
100456.26
100432.83
100411.29
100391.58
100373.62
100357.31
100342.56
100329.25
100317.32
100306.72
100297.28
100288.57
100280.39
100273.92
100270.29
100265
100249.14
100234.12
100260.5
100312.55
89355.454
90297.385
90302.275
91212.225
91433.494
92175.735
92646.203
93266.359
93856.238
94467.112
95082.014
95698.561
96310.727
96912.707
97498.333
98061.536
98596.614
99098.521
99563.099
99987.238
100368.95
100707.37
101002.65
101255.86
101468.83
101643.94
101783.98
101892.01
101971.18
102024.66
102055.53
102066.74
102061.06
102041.02
102008.95
101966.96
101916.92
101860.5
101799.16
101734.18
101666.69
101597.63
101527.83
101458
101388.72
101320.49
101253.73
101188.76
101125.87
101065.25
101007.08
100951.47
100898.51
100848.24
100800.7
100755.87
100713.74
100674.27
100637.41
100603.08
100571.21
100541.73
100514.52
100489.5
100466.57
100445.62
100426.52
100409.16
100393.49
100379.42
100366.69
100354.88
100344.09
100335.63
100329.94
100321.47
100302.61
100288.53
100319.67
100368.09
89970.216
91089.213
91123.917
92167.653
92476.595
93305.902
93893.157
94599.011
95285.912
95982.993
96676.066
97359.018
98023.502
98661.634
99265.932
99829.845
100348.07
100816.76
101233.61
101597.82
101909.96
102171.74
102385.8
102555.45
102684.44
102776.74
102836.39
102867.35
102873.44
102858.21
102824.95
102776.65
102716
102645.39
102566.94
102482.49
102393.65
102301.81
102208.17
102113.73
102019.37
101925.79
101833.61
101743.33
101655.34
101569.98
101487.49
101408.09
101331.91
101259.06
101189.59
101123.54
101060.91
101001.68
100945.81
100893.23
100843.88
100797.68
100754.53
100714.32
100676.97
100642.34
100610.32
100580.81
100553.67
100528.78
100506.02
100485.28
100466.48
100449.5
100434.02
100419.7
100406.91
100396.96
100389.37
100377.99
100357.48
100345.93
100380.85
100424.52
90749.711
92081.732
92161.052
93359.572
93789.447
94718.091
95443.954
96251.796
97042.403
97826.589
98589.481
99321.367
100012.07
100652.96
101237.16
101759.91
102218.56
102612.57
102943.16
103213.06
103426.12
103586.92
103700.54
103772.17
103807
103810
103785.85
103738.84
103672.87
103591.43
103497.6
103394.08
103283.22
103167.04
103047.29
102925.43
102802.73
102680.22
102558.8
102439.19
102321.98
102207.66
102096.61
101989.14
101885.47
101785.78
101690.18
101598.74
101511.51
101428.47
101349.61
101274.88
101204.21
101137.53
101074.73
101015.71
100960.35
100908.54
100860.16
100815.07
100773.14
100734.24
100698.24
100664.99
100634.38
100606.25
100580.48
100556.97
100535.64
100516.3
100498.61
100482.37
100468.19
100457.16
100447.88
100434.05
100413.08
100405.33
100443.08
100480.63
91725.76
93323.722
93484.23
94854.562
95451.094
96494.535
97375.378
98294.08
99180.488
100032.05
100832.5
101570.69
102237.49
102826.92
103336.08
103764.89
104115.74
104392.9
104601.97
104749.4
104842.03
104886.73
104890.14
104858.51
104797.58
104712.49
104607.85
104487.68
104355.48
104214.25
104066.58
103914.63
103760.26
103605.01
103450.15
103296.75
103145.68
102997.65
102853.22
102712.83
102576.85
102445.52
102319.04
102197.54
102081.09
101969.73
101863.46
101762.24
101666.01
101574.69
101488.19
101406.4
101329.19
101256.43
101187.98
101123.71
101063.45
101007.08
100954.43
100905.35
100859.7
100817.32
100778.07
100741.8
100708.37
100677.64
100649.47
100623.78
100600.45
100579.26
100559.88
100542.29
100527.24
100515.44
100504.69
100489.1
100468.84
100465.39
100504.36
100534.49
92980.356
94913.968
95200.334
96763.196
97573.342
98738.155
99766.595
100777.89
101720
102584.08
103356.53
104030.01
104601.38
105071.58
105444.84
105727.8
105928.73
106056.71
106121.05
106130.84
106094.61
106020.2
105914.62
105784.02
105633.77
105468.47
105292.04
105107.77
104918.43
104726.33
104533.37
104341.11
104150.83
103963.57
103780.15
103601.22
103427.29
103258.77
103095.92
102938.96
102788.01
102643.16
102504.42
102371.78
102245.19
102124.57
102009.82
101900.82
101797.44
101699.53
101606.94
101519.51
101437.08
101359.46
101286.5
101218.01
101153.83
101093.79
101037.72
100985.45
100936.81
100891.66
100849.82
100811.16
100775.51
100742.73
100712.7
100685.34
100660.48
100637.88
100617.29
100598.86
100583.36
100570.99
100559.01
100542.51
100524.01
100524.29
100562.09
100585.2
94643.07
96990.918
97457.604
99209.921
100267.09
101534.78
102654.57
103688.86
104600.13
105382.65
106032.84
106553.58
106952.09
107238.78
107425.86
107526.26
107552.76
107517.42
107431.26
107304.07
107144.38
106959.49
106755.58
106537.85
106310.6
106077.37
105841.06
105604.04
105368.22
105135.13
104905.99
104681.74
104463.15
104250.76
104045.01
103846.19
103654.51
103470.09
103292.98
103123.2
102960.68
102805.37
102657.14
102515.88
102381.42
102253.61
102132.27
102017.22
101908.26
101805.2
101707.84
101615.99
101529.45
101448.01
101371.48
101299.67
101232.39
101169.45
101110.67
101055.88
101004.89
100957.55
100913.69
100873.15
100835.79
100801.45
100770.02
100741.4
100715.42
100691.81
100670.44
100651.57
100635.86
100623.02
100610.11
100593.43
100577.33
100580.7
100615.92
100633.19
96899.395
99711.569
100418.85
102306.92
103570.03
104877.6
105969.67
106898.67
107652.37
108237.36
108665.43
108953
109118.36
109180.17
109156.16
109062.48
108913.36
108721.02
108495.77
108246.18
107979.26
107700.76
107415.28
107126.53
106837.46
106550.4
106267.17
105989.19
105717.56
105453.09
105196.39
104947.9
104707.9
104476.59
104254.05
104040.29
103835.29
103638.94
103451.13
103271.71
103100.49
102937.3
102781.91
102634.12
102493.7
102360.42
102234.05
102114.36
102001.11
101894.09
101793.05
101697.77
101608.03
101523.61
101444.3
101369.89
101300.18
101234.97
101174.07
101117.3
101064.48
101015.44
100970.01
100928.03
100889.35
100853.84
100821.38
100791.85
100765.06
100740.78
100718.97
100699.95
100684.18
100670.94
100657.41
100641.28
100628.03
100633.91
100665.25
100675.57
99994.017
103183.21
104190.5
106137.18
107433.13
108585.75
109486.01
110159.46
110624.85
110909.51
111041.82
111049.44
110957.45
110787.72
110558.66
110285.5
109980.55
109653.69
109312.73
108963.8
108611.7
108260.11
107911.89
107569.2
107233.66
106906.48
106588.53
106280.43
105982.58
105695.22
105418.49
105152.4
104896.89
104651.87
104417.15
104192.57
103977.88
103772.86
103577.24
103390.77
103213.17
103044.17
102883.48
102730.84
102585.97
102448.59
102318.43
102195.23
102078.72
101968.66
101864.79
101766.86
101674.65
101587.91
101506.43
101429.98
101358.37
101291.37
101228.81
101170.49
101116.23
101065.86
101019.2
100976.11
100936.44
100900.04
100866.82
100836.62
100809.26
100784.56
100762.56
100743.56
100727.75
100714.18
100700.46
100685.51
100675.11
100682.04
100708.21
100714.04
104180.93
107578.08
108780.3
110454.95
111563.26
112375.6
112892.6
113169.7
113251.91
113182.4
112997.49
112727.19
112395.44
112021.05
111618.49
111198.84
110770.48
110339.69
109911.15
109488.31
109073.69
108669.09
108275.78
107894.61
107526.12
107170.62
106828.25
106499
106182.77
105879.38
105588.6
105310.15
105043.73
104789.02
104545.69
104313.4
104091.79
103880.53
103679.27
103487.66
103305.38
103132.09
102967.46
102811.17
102662.93
102522.42
102389.34
102263.42
102144.37
102031.91
101925.8
101825.76
101731.56
101642.95
101559.7
101481.59
101408.41
101339.96
101276.02
101216.43
101160.98
101109.51
101061.86
101017.86
100977.37
100940.27
100906.44
100875.71
100847.94
100822.98
100800.91
100781.94
100766.06
100752.26
100738.74
100725.37
100717.4
100724.2
100744.8
100747.29
109384.6
112730.76
113834.82
114943.6
115538.57
115807.9
115816.51
115637.8
115325.57
114921.89
114457.91
113956.56
113434.43
112903.42
112372.02
111846.18
111330.07
110826.51
110337.39
109863.91
109406.75
108966.26
108542.52
108135.42
107744.74
107370.15
107011.28
106667.68
106338.92
106024.53
105724.05
105436.99
105162.9
104901.32
104651.81
104413.92
104187.22
103971.31
103765.79
103570.25
103384.33
103207.66
103039.89
102880.66
102729.65
102586.55
102451.03
102322.79
102201.55
102087.03
101978.95
101877.05
101781.08
101690.8
101605.97
101526.36
101451.76
101381.98
101316.79
101256.03
101199.49
101147.02
101098.45
101053.62
101012.4
100974.65
100940.26
100909.06
100880.92
100855.77
100833.63
100814.63
100798.59
100784.69
100771.77
100760.21
100754.03
100759.09
100773.21
100774.32
115549.95
118043.91
118642.58
118911.66
118807.4
118470.87
117981.09
117398.37
116762.9
116101.89
115433.38
114769.18
114116.96
113481.55
112865.91
112271.71
111699.78
111150.36
110623.32
110118.29
109634.73
109171.99
108729.39
108306.21
107901.72
107515.21
107145.96
106793.3
106456.55
106135.09
105828.29
105535.57
105256.37
104990.15
104736.39
104494.61
104264.32
104045.08
103836.45
103638.01
103449.36
103270.12
103099.91
102938.38
102785.18
102639.99
102502.49
102372.36
102249.31
102133.06
102023.32
101919.85
101822.37
101730.65
101644.45
101563.55
101487.72
101416.77
101350.49
101288.7
101231.21
101177.85
101128.47
101082.9
101041.02
101002.69
100967.78
100936.16
100907.71
100882.36
100860.12
100840.98
100824.73
100810.8
100798.64
100788.77
100783.64
100786.25
100794.67
100795.77
122130.68
122564.92
122341.14
121787.12
121051.47
120224.89
119362.97
118497.33
117646.28
116819.92
116023.57
115259.69
114529.06
113831.44
113166.01
112531.66
111927.08
111350.93
110801.85
110278.5
109779.62
109303.99
108850.45
108417.94
108005.43
107611.98
107236.68
106878.7
106537.26
106211.62
105901.08
105604.98
105322.71
105053.68
104797.34
104553.15
104320.63
104099.3
103888.69
103688.39
103497.97
103317.05
103145.23
102982.16
102827.48
102680.86
102541.98
102410.53
102286.2
102168.72
102057.8
101953.17
101854.58
101761.79
101674.56
101592.67
101515.89
101444.03
101376.88
101314.26
101255.99
101201.9
101151.82
101105.62
101063.14
101024.26
100988.86
100956.8
100927.99
100902.37
100879.9
100860.49
100843.95
100829.95
100818.41
100809.79
100805.17
100805.19
100809.14
100810.93
125993.4
125365.29
124445.22
123389.96
122303.05
121228.55
120189.05
119193.79
118246.16
117346.33
116492.98
115684
114917.01
114189.55
113499.2
112843.69
112220.85
111628.7
111065.41
110529.27
110018.74
109532.39
109068.9
108627.07
108205.78
107803.99
107420.74
107055.16
106706.42
106373.74
106056.4
105753.73
105465.1
105189.9
104927.57
104677.58
104439.42
104212.61
103996.7
103791.24
103595.83
103410.05
103233.54
103065.92
102906.85
102755.98
102612.99
102477.57
102349.43
102228.27
102113.81
102005.78
101903.94
101808.03
101717.82
101633.08
101553.59
101479.15
101409.55
101344.62
101284.16
101228.01
101176.01
101128.01
101083.87
101043.45
101006.64
100973.31
100943.37
100916.76
100893.42
100873.22
100856.01
100841.61
100830
100821.45
100816.44
100815.28
100817.16
100819.37
104052.4
104016.51
104042.85
104069.67
104084.92
104076.63
104044.23
104002.56
103954.89
103896.36
103824.87
103743.27
103654.82
103563.65
103470.09
103374.16
103276.07
103176.15
103074.7
102971.95
102868.16
102763.54
102658.3
102552.66
102446.81
102340.93
102235.2
102129.8
102024.89
101920.63
101817.19
101714.72
101613.38
101513.32
101414.68
101317.61
101222.26
101128.77
101037.29
100947.95
100860.91
100776.3
100694.27
100614.96
100538.5
100465.03
100394.7
100327.61
100263.9
100203.68
100147.05
100094.11
100044.93
99999.583
99958.116
99920.558
99886.918
99857.184
99831.319
99809.258
99790.907
99776.146
99764.84
99756.824
99751.936
99749.921
99750.684
99753.647
99759.366
99765.737
99776.533
99783.038
99801.897
99802.067
99837.374
99814.63
99883.626
99820.288
99936.181
99824.31
103069.43
103063.23
103086.08
103106.79
103109.48
103108.28
103101.01
103087.29
103064.06
103035.24
102999.94
102959.65
102913.82
102863.3
102808.15
102748.87
102685.65
102618.77
102548.52
102475.17
102399
102320.3
102239.34
102156.42
102071.8
101985.76
101898.56
101810.47
101721.74
101632.61
101543.32
101454.11
101365.2
101276.8
101189.14
101102.42
101016.84
100932.6
100849.9
100768.92
100689.84
100612.86
100538.15
100465.88
100396.22
100329.34
100265.4
100204.53
100146.88
100092.57
100041.72
99994.439
99950.802
99910.881
99874.725
99842.363
99813.8
99789.018
99767.973
99750.59
99736.765
99726.372
99719.263
99715.268
99714.21
99715.837
99720.022
99726.242
99734.926
99744.234
99757.416
99766.777
99787.151
99790.203
99825.865
99806.829
99875.404
99814.677
99932.551
99817.908
102432.83
102427.58
102426.91
102428.79
102424.11
102419.01
102409.39
102399.55
102384.77
102367.6
102345.31
102320.1
102290.22
102256.94
102219.58
102178.66
102134.12
102086.18
102034.98
101980.69
101923.5
101863.6
101801.2
101736.5
101669.71
101601.05
101530.73
101458.98
101386.03
101312.09
101237.41
101162.2
101086.71
101011.15
100935.77
100860.79
100786.42
100712.91
100640.46
100569.29
100499.63
100431.66
100365.62
100301.69
100240.07
100180.95
100124.5
100070.9
100020.3
99972.838
99928.644
99887.831
99850.491
99816.698
99786.502
99759.935
99736.999
99717.672
99701.903
99689.612
99680.685
99674.99
99672.373
99672.657
99675.655
99681.118
99688.894
99698.504
99710.285
99722.596
99738.301
99750.48
99772.576
99778.274
99814.677
99798.93
99867.413
99809.066
99928.887
99811.849
101980.17
101967.87
101952.21
101936.53
101921.55
101908.42
101888.5
101870.29
101848.12
101826.71
101801.59
101776.32
101748
101718.59
101686.72
101653.06
101617.23
101579.34
101539.33
101497.21
101452.99
101406.71
101358.41
101308.16
101256.05
101202.17
101146.66
101089.63
101031.25
100971.68
100911.1
100849.68
100787.64
100725.17
100662.48
100599.79
100537.32
100475.3
100413.94
100353.47
100294.12
100236.11
100179.66
100125.01
100072.34
100021.88
99973.812
99928.319
99885.572
99845.723
99808.913
99775.261
99744.866
99717.807
99694.137
99673.888
99657.061
99643.632
99633.543
99626.705
99623.004
99622.298
99624.429
99629.216
99636.464
99645.925
99657.434
99670.545
99685.526
99700.894
99719.221
99734.198
99758.157
99766.341
99803.763
99790.964
99859.691
99803.483
99925.237
99806.17
101438.56
101422.2
101403.91
101384.65
101364.58
101348.42
101327.7
101310.77
101289.42
101271.01
101248.95
101228.54
101205.42
101182.59
101157.91
101132.41
101105.47
101077.23
101047.51
101016.29
100983.51
100949.14
100913.16
100875.58
100836.41
100795.7
100753.5
100709.89
100664.96
100618.81
100571.57
100523.39
100474.41
100424.81
100374.75
100324.43
100274.05
100223.82
100173.94
100124.65
100076.15
100028.68
99982.474
99937.743
99894.712
99853.59
99814.58
99777.872
99743.643
99712.055
99683.253
99657.361
99634.483
99614.699
99598.064
99584.608
99574.334
99567.208
99563.169
99562.122
99563.947
99568.5
99575.617
99585.113
99596.788
99610.397
99625.764
99642.476
99660.744
99679.224
99700.245
99718.016
99743.919
99754.522
99793.103
99783.051
99852.207
99798.001
99921.657
99800.848
100803.9
100793.95
100784.46
100774.64
100761.93
100754.47
100740.66
100732.14
100717.74
100707.56
100692.66
100680.52
100665.23
100651.01
100634.89
100618.36
100600.58
100581.86
100561.96
100540.87
100518.54
100494.95
100470.05
100443.84
100416.31
100387.46
100357.33
100325.95
100293.37
100259.65
100224.89
100189.17
100152.62
100115.36
100077.54
100039.33
100000.88
99962.395
99924.059
99886.08
99848.669
99812.045
99776.426
99742.031
99709.077
99677.772
99648.318
99620.905
99595.711
99572.898
99552.613
99534.978
99520.098
99508.05
99498.888
99492.64
99489.303
99488.837
99491.174
99496.213
99503.83
99513.875
99526.184
99540.566
99556.819
99574.702
99594.031
99614.426
99636.046
99657.682
99681.44
99701.995
99729.899
99742.905
99782.697
99775.27
99844.961
99792.682
99918.126
99795.861
100179.29
100177.25
100175.26
100174.98
100169.46
100170.63
100163.89
100164.06
100157.11
100155.9
100148.74
100145.29
100138.05
100132.39
100124.51
100116.49
100107.2
100097.24
100086.32
100074.46
100061.63
100047.78
100032.9
100016.95
99999.928
99981.815
99962.619
99942.353
99921.047
99898.741
99875.492
99851.371
99826.464
99800.872
99774.713
99748.119
99721.236
99694.223
99667.254
99640.512
99614.192
99588.492
99563.617
99539.772
99517.159
99495.979
99476.423
99458.674
99442.902
99429.265
99417.9
99408.926
99402.441
99398.516
99397.201
99398.515
99402.446
99408.948
99417.943
99429.324
99442.96
99458.702
99476.377
99495.795