/*--------------------------------*- C++ -*----------------------------------*\
| =========                 |                                                 |
| \\      /  F ield         | OpenFOAM: The Open Source CFD Toolbox           |
|  \\    /   O peration     | Version:  2512                                  |
|   \\  /    A nd           | Website:  www.openfoam.com                      |
|    \\/     M anipulation  |                                                 |
\*---------------------------------------------------------------------------*/
FoamFile
{
    version     2.0;
    format      ascii;
    arch        "LSB;label=32;scalar=64";
    class       surfaceScalarField;
    location    "0.143";
    object      phi;
}
// * * * * * * * * * * * * * * * * * * * * * * * * * * * * * * * * * * * * * //

dimensions      [1 0 -1 0 0 0 0];

oriented        oriented;

internalField   nonuniform List<scalar> 
31760
(
-0.00063985428
-0.051040224
0.051680331
-0.0016052265
-0.064469336
0.065435009
-0.0025821773
-0.062925736
0.063903537
-0.003601778
-0.068729166
0.069749184
-0.0046746663
-0.070291356
0.071364723
-0.0057765703
-0.074639339
0.075741704
-0.006948138
-0.07751571
0.078687799
-0.0081587703
-0.08156254
0.082773691
-0.0094295088
-0.085167498
0.086438787
-0.010759103
-0.08930431
0.090634469
-0.012143961
-0.093435953
0.0948214
-0.01359631
-0.097857929
0.099310889
-0.015110329
-0.10243829
0.10395295
-0.016694617
-0.10724856
0.10883351
-0.018348523
-0.11227322
0.11392782
-0.020076907
-0.11753074
0.11925985
-0.021882365
-0.12302854
0.12483476
-0.023768111
-0.12877828
0.13066483
-0.025737367
-0.13479094
0.13676104
-0.027793526
-0.14107782
0.14313487
-0.029940015
-0.14765134
0.14979876
-0.032180591
-0.15452348
0.15676504
-0.034518847
-0.16170785
0.16404715
-0.036958688
-0.16921818
0.17165911
-0.039503085
-0.17706899
0.17961455
-0.042156622
-0.18527443
0.18792919
-0.044923195
-0.19385073
0.19661859
-0.047806231
-0.20281451
0.20569892
-0.05080923
-0.21218271
0.21518716
-0.053936244
-0.2219734
0.22510194
-0.057190589
-0.23220551
0.23546147
-0.060575609
-0.24289887
0.24628559
-0.064094131
-0.25407496
0.25759528
-0.067749221
-0.26575491
0.26941191
-0.07154289
-0.27796281
0.2817585
-0.075476821
-0.29072294
0.29465901
-0.079552365
-0.30406106
0.30813886
-0.083770017
-0.31800489
0.32222493
-0.088129606
-0.33258246
0.33694458
-0.092629826
-0.34782527
0.35232817
-0.097268677
-0.36376517
0.36840686
-0.10204272
-0.380436
0.38521306
-0.10694735
-0.39787393
0.40278174
-0.1119767
-0.41611695
0.4211497
-0.11712303
-0.43520558
0.4403555
-0.12237713
-0.45518162
0.46043954
-0.1277274
-0.47609018
0.48144449
-0.13316085
-0.49797782
0.50341556
-0.1386619
-0.52089485
0.52640045
-0.14421218
-0.54489324
0.55044835
-0.14979058
-0.57002761
0.57561113
-0.1553735
-0.59635616
0.60194454
-0.16093351
-0.62393939
0.62950519
-0.16643957
-0.65284099
0.65835321
-0.17185712
-0.6831276
0.6885517
-0.17714617
-0.71486986
0.72016589
-0.18226259
-0.74814094
0.75326478
-0.18715689
-0.78301762
0.78791985
-0.19177267
-0.81958067
0.82420491
-0.19604769
-0.85791408
0.86219817
-0.19991187
-0.89810545
0.90197933
-0.20328731
-0.94024598
0.94363183
-0.20608666
-0.98443127
0.98724179
-0.20821253
-1.0307606
1.0328984
-0.20955607
-1.0793353
1.0806917
-0.20999632
-1.1302608
1.1307148
-0.20939697
-1.1836439
1.1830593
-0.20761251
-1.2395928
1.237824
-0.20447603
-1.2982244
1.2951047
-0.19980043
-1.359658
1.3550002
-0.19338307
-1.4240154
1.4176169
-0.18500358
-1.4914171
1.4830576
-0.17440849
-1.5619875
1.5514133
-0.16133121
-1.6358501
1.6227945
-0.14546225
-1.7131532
1.6973067
-0.12652974
-1.7940414
1.7751319
-0.10391488
-1.8786727
1.8560808
-0.07799065
-1.9674671
1.941571
-0.046701347
-2.059287
2.0280128
-2.1578057
2.1229533
-0.00063412957
-0.050405614
-0.0015039182
-0.063599082
-0.0023972968
-0.0620328
-0.0033564006
-0.067769492
-0.004325595
-0.069321652
-0.0053714639
-0.073592926
-0.0064331174
-0.076453524
-0.0075745117
-0.080420604
-0.0087416585
-0.083999804
-0.0099834895
-0.088061919
-0.011267774
-0.092151095
-0.012619924
-0.096505187
-0.014029112
-0.10102849
-0.015504971
-0.10577206
-0.017047354
-0.11073017
-0.018660566
-0.11591683
-0.02034673
-0.12134164
-0.022109643
-0.1270146
-0.023952521
-0.13294725
-0.025878957
-0.13915053
-0.027892619
-0.14563677
-0.029996769
-0.15241838
-0.032195523
-0.15950809
-0.034492578
-0.16692006
-0.036892744
-0.1746677
-0.039398844
-0.18276714
-0.042015588
-0.19123273
-0.04474673
-0.20008205
-0.047596579
-0.20933146
-0.050568739
-0.21899976
-0.053667327
-0.22910535
-0.05689572
-0.23966881
-0.060257272
-0.25071165
-0.063755028
-0.26225529
-0.067391472
-0.27432439
-0.071168993
-0.28694333
-0.075088824
-0.30013901
-0.079152531
-0.31393883
-0.083359519
-0.32837297
-0.087709436
-0.34347271
-0.092200724
-0.35927107
-0.096830316
-0.37580342
-0.10159387
-0.3931072
-0.10648632
-0.41122114
-0.11150058
-0.43018774
-0.11662807
-0.45005033
-0.12185853
-0.47085569
-0.12717928
-0.49265279
-0.13257597
-0.51549359
-0.13803196
-0.53943239
-0.14352782
-0.56452658
-0.1490414
-0.59083708
-0.1545474
-0.61842753
-0.16001743
-0.64736473
-0.1654193
-0.67771907
-0.17071664
-0.70956542
-0.17586891
-0.74298109
-0.18083048
-0.77804794
-0.18554999
-0.81485249
-0.18997055
-0.85348423
-0.1940281
-0.89403793
-0.19765128
-0.93661211
-0.20075997
-0.98131108
-0.20326599
-1.0282422
-0.20506968
-1.0775183
-0.20606156
-1.1292546
-0.20611584
-1.1835743
-0.20509711
-1.2405951
-0.20285452
-1.3004496
-0.19921932
-1.3632746
-0.19400712
-1.4292079
-0.18701072
-1.4983926
-0.17800338
-1.5709728
-0.16673312
-1.6470973
-0.15293323
-1.7269292
-0.13629796
-1.8106521
-0.11645188
-1.8984931
-0.093282791
-1.9906078
-0.065639101
-2.0869141
-2.1890212
-0.00057098865
-0.04983438
-0.0013828174
-0.062786969
-0.0021887698
-0.061226237
-0.0030951748
-0.06686282
-0.0039851533
-0.068431391
-0.0049632506
-0.072614499
-0.0059404607
-0.075475956
-0.007003059
-0.079357616
-0.0080832673
-0.082919177
-0.0092373226
-0.086907413
-0.010430213
-0.090957722
-0.011687479
-0.095247407
-0.012999183
-0.099716238
-0.01437411
-0.10439655
-0.015812681
-0.10929098
-0.017318594
-0.11441026
-0.018895162
-0.11976438
-0.020545346
-0.12536368
-0.022273412
-0.13121841
-0.02408218
-0.13734094
-0.025976129
-0.14374196
-0.027958775
-0.15043482
-0.030033992
-0.15743191
-0.032206561
-0.16474646
-0.034479755
-0.17239342
-0.036858793
-0.18038695
-0.039347143
-0.18874317
-0.041949897
-0.197478
-0.044670645
-0.20660935
-0.047514581
-0.21615437
-0.050484864
-0.22613354
-0.053585882
-0.23656617
-0.056821507
-0.2474743
-0.060194495
-0.25888047
-0.063708509
-0.27080844
-0.067365789
-0.28328399
-0.071168649
-0.29633397
-0.075117669
-0.30998749
-0.079213928
-0.32427425
-0.083456964
-0.33922705
-0.087845031
-0.35488022
-0.092376043
-0.37126945
-0.097046644
-0.38843345
-0.10185137
-0.40641305
-0.10678424
-0.42525131
-0.11183724
-0.44499353
-0.11700113
-0.46568775
-0.12226396
-0.48738564
-0.12761315
-0.5101398
-0.13303303
-0.53400761
-0.13850539
-0.559049
-0.14401079
-0.5853261
-0.1495259
-0.61290646
-0.15502481
-0.64185946
-0.16047831
-0.67225877
-0.16585349
-0.70418298
-0.17111376
-0.73771304
-0.17621698
-0.77293638
-0.1811177
-0.80994283
-0.18576347
-0.84882886
-0.19009689
-0.88969422
-0.19405294
-0.93264498
-0.19756003
-0.97779206
-0.20053732
-1.0252521
-0.20289482
-1.075147
-0.20453132
-1.1276032
-0.20533846
-1.1827512
-0.20519005
-1.2407264
-0.20394646
-1.3016749
-0.20145964
-1.3657419
-0.19755625
-1.4330904
-0.1920541
-1.5038726
-0.18474148
-1.578262
-0.17539384
-1.6564203
-0.16376135
-1.738536
-0.14956237
-1.8248247
-0.132507
-1.91552
-0.11231717
-2.0107682
-0.088327077
-2.1108825
-2.2164963
-0.00051628249
-0.049317832
-0.0012675202
-0.062035442
-0.0019987283
-0.06049471
-0.0028476911
-0.066013527
-0.0036730119
-0.067605691
-0.0045842371
-0.071702902
-0.0054852126
-0.074574586
-0.0064743677
-0.078368045
-0.0074749894
-0.081918117
-0.0085483444
-0.085833596
-0.0096573928
-0.089848187
-0.010827859
-0.094076428
-0.012050904
-0.098492652
-0.0133343
-0.10311258
-0.014679503
-0.10794518
-0.016090364
-0.11299877
-0.017570137
-0.11828393
-0.01912219
-0.12381092
-0.020749975
-0.12958987
-0.022457824
-0.1356323
-0.024248894
-0.14195005
-0.026128242
-0.14855458
-0.028099781
-0.15545943
-0.03016751
-0.16267774
-0.032336611
-0.17022327
-0.034611069
-0.17811138
-0.03699597
-0.18635708
-0.039495708
-0.19497701
-0.042115802
-0.20398793
-0.044859679
-0.21340909
-0.047732551
-0.22325917
-0.050738865
-0.23355827
-0.053882399
-0.24432908
-0.057167123
-0.25559396
-0.060596529
-0.26737713
-0.064173151
-0.27970535
-0.067899275
-0.2926057
-0.071776879
-0.3061076
-0.075806359
-0.32024234
-0.079987798
-0.33504303
-0.084320614
-0.35054464
-0.088802139
-0.36678498
-0.093429561
-0.3838029
-0.098198499
-0.40164078
-0.10310299
-0.42034326
-0.10813652
-0.43995621
-0.11328933
-0.46053088
-0.11855246
-0.48211818
-0.12391309
-0.50477455
-0.12935752
-0.52855823
-0.13487008
-0.55353116
-0.14043212
-0.57975841
-0.14602337
-0.60730916
-0.15162094
-0.63625541
-0.15719775
-0.66667502
-0.16272543
-0.69864786
-0.1681705
-0.73225999
-0.17349611
-0.7676022
-0.17866111
-0.80476863
-0.18361908
-0.84386099
-0.18831837
-0.88498427
-0.19270114
-0.92825074
-0.19670321
-0.97377762
-0.2002523
-1.0216897
-0.20326794
-1.0721169
-0.20566219
-1.1251935
-0.20732957
-1.1810671
-0.20816409
-1.239874
-0.20803733
-1.3017824
-0.2068171
-1.3669416
-0.20435054
-1.435535
-0.20046141
-1.5077383
-0.19497211
-1.5837263
-0.18767027
-1.6636958
-0.17833471
-1.7478441
-0.16671437
-1.8364163
-0.15254352
-1.9296598
-0.13552777
-2.027753
-0.1152129
-2.1311726
-2.2400611
-0.0004623908
-0.048855176
-0.001167023
-0.061330526
-0.0018220756
-0.059839401
-0.0026110947
-0.065224185
-0.0033600977
-0.066856337
-0.0042142373
-0.070848406
-0.0050484483
-0.073740002
-0.0059718341
-0.077444264
-0.0069014848
-0.080988051
-0.0079018366
-0.084832806
-0.0089366586
-0.088812902
-0.010030522
-0.092982076
-0.01117669
-0.097345968
-0.012381711
-0.10190702
-0.01364775
-0.10667856
-0.014977921
-0.11166799
-0.016375929
-0.11688528
-0.017845527
-0.12234064
-0.019390393
-0.12804428
-0.021014553
-0.13400738
-0.022722731
-0.14024106
-0.024518292
-0.14675816
-0.026406782
-0.15357003
-0.028392831
-0.16069073
-0.030481012
-0.16813407
-0.032676669
-0.17591464
-0.034985089
-0.18404752
-0.037411296
-0.19254959
-0.039960316
-0.20143761
-0.042637461
-0.21073057
-0.045447724
-0.22044745
-0.0483957
-0.23060874
-0.051485871
-0.24123726
-0.054722718
-0.25235536
-0.058109521
-0.26398846
-0.061649478
-0.27616341
-0.065345192
-0.28890787
-0.06919865
-0.30225189
-0.073210672
-0.31622791
-0.077381697
-0.33086944
-0.081710705
-0.3462129
-0.086196527
-0.36229624
-0.090835859
-0.37916045
-0.095624981
-0.39684832
-0.10055937
-0.4154053
-0.10563199
-0.4348798
-0.11083552
-0.45532328
-0.11616075
-0.47678859
-0.12159687
-0.49933377
-0.12713223
-0.52301787
-0.13275226
-0.54790577
-0.13844142
-0.57406351
-0.14418157
-0.60156285
-0.14995228
-0.63047808
-0.15573112
-0.66088907
-0.16149221
-0.69287913
-0.16720625
-0.72653773
-0.17284181
-0.7619578
-0.17836217
-0.79923875
-0.18372728
-0.83848561
-0.18889133
-0.87980916
-0.19380377
-0.92332636
-0.19840764
-0.96916087
-0.20263975
-1.0174436
-0.20642924
-1.0683124
-0.20969548
-1.121911
-0.21235313
-1.1783919
-0.21429633
-1.2379119
-0.21542453
-1.3006339
-0.21560469
-1.3667397
-0.21470916
-1.4364072
-0.21258429
-1.5098382
-0.20906276
-1.5872212
-0.20396047
-1.6687698
-0.19707424
-1.7547006
-0.18818027
-1.845279
-0.17704514
-1.9407608
-0.16337372
-2.0413908
-0.14684343
-2.1476741
-2.2595168
-0.00041267373
-0.048442257
-0.0010762352
-0.060666697
-0.0016692124
-0.059246127
-0.002402893
-0.064490206
-0.0030747991
-0.066184135
-0.0038778363
-0.070045036
-0.0046445473
-0.072972939
-0.0055077918
-0.076580647
-0.0063734052
-0.080122043
-0.0073125996
-0.083893194
-0.008287634
-0.087837426
-0.0093193686
-0.091949875
-0.010403409
-0.096261434
-0.011544724
-0.10076518
-0.012745997
-0.10547674
-0.014011113
-0.11040228
-0.015343565
-0.11555221
-0.016747235
-0.12093631
-0.018226636
-0.12656419
-0.019785779
-0.1324475
-0.021429788
-0.13859627
-0.023163512
-0.14502361
-0.024992138
-0.15174053
-0.026920825
-0.15876111
-0.028955253
-0.16609865
-0.03110131
-0.17376753
-0.033363821
-0.18178389
-0.035749189
-0.19016304
-0.038262823
-0.19892272
-0.040910218
-0.20808184
-0.043697087
-0.21765916
-0.046628127
-0.22767619
-0.049708853
-0.23815492
-0.052942676
-0.24911982
-0.056334207
-0.2605951
-0.059886875
-0.27260878
-0.063602954
-0.2851897
-0.067484494
-0.29836812
-0.071533082
-0.31217694
-0.075748809
-0.32665117
-0.080131571
-0.34182742
-0.08467935
-0.35774556
-0.089390381
-0.37444631
-0.094261367
-0.39197401
-0.09928718
-0.41037593
-0.10446266
-0.42970049
-0.10978199
-0.44999986
-0.11523621
-0.47132997
-0.12081732
-0.49374795
-0.12651383
-0.5173163
-0.13231506
-0.54209911
-0.13820694
-0.56816578
-0.14417439
-0.59558912
-0.15020027
-0.62444544
-0.15626519
-0.65481687
-0.16234734
-0.68678913
-0.168423
-0.72045362
-0.17446405
-0.75590761
-0.18044003
-0.79325292
-0.18631588
-0.83259911
-0.19205345
-0.87406009
-0.19760881
-0.91775858
-0.20293326
-0.96382298
-0.20797185
-1.0123905
-0.21266305
-1.0636055
-0.21693769
-1.1176193
-0.2207184
-1.1745927
-0.22392096
-1.2346894
-0.22644335
-1.29809
-0.22818496
-1.364975
-0.22902189
-1.4355455
-0.2288231
-1.5100103
-0.22744091
-1.5885747
-0.2247098
-1.6714704
-0.22044999
-1.7589282
-0.21446812
-1.8512267
-0.20654785
-1.9486437
-0.19643518
-2.051467
-0.18385399
-2.1602221
-2.2746721
-0.00037012163
-0.0480719
-0.001002891
-0.060033674
-0.001541197
-0.058707555
-0.0022289778
-0.06380214
-0.0028437033
-0.065569102
-0.003595937
-0.069292482
-0.0043097118
-0.072258826
-0.0051118967
-0.075778105
-0.0059373889
-0.079296172
-0.0068297553
-0.083000427
-0.0077578452
-0.086908913
-0.0087388402
-0.090968432
-0.0097717523
-0.095228047
-0.010860902
-0.099675526
-0.012010278
-0.10432683
-0.013223393
-0.10918861
-0.014505115
-0.11426989
-0.015859548
-0.11958125
-0.017291512
-0.12513155
-0.018806427
-0.13093187
-0.020408929
-0.13699302
-0.022105272
-0.14332647
-0.023900727
-0.14994422
-0.02580106
-0.15685988
-0.027812714
-0.16408604
-0.029941432
-0.1716378
-0.032194219
-0.17953002
-0.034576763
-0.18777934
-0.037094933
-0.19640332
-0.039755477
-0.20541998
-0.042563543
-0.2148497
-0.045524856
-0.22471339
-0.048644221
-0.23503397
-0.051926873
-0.24583547
-0.055375963
-0.2571442
-0.058995238
-0.26898758
-0.062787864
-0.28139501
-0.06675555
-0.29439823
-0.070899415
-0.30803072
-0.075220076
-0.32232798
-0.079717432
-0.33732736
-0.08439015
-0.35306994
-0.089236572
-0.36959678
-0.094253425
-0.38695383
-0.099437672
-0.40518811
-0.10478464
-0.42434968
-0.11028876
-0.44449163
-0.1159444
-0.4656699
-0.12174348
-0.4879441
-0.12767849
-0.51137616
-0.13373931
-0.53603277
-0.13991551
-0.56198363
-0.14619535
-0.58930286
-0.15256462
-0.61806923
-0.15900817
-0.64836585
-0.16550811
-0.68028111
-0.17204514
-0.71390785
-0.17859681
-0.7493465
-0.18513777
-0.78670173
-0.19164001
-0.8260858
-0.19807092
-0.8676172
-0.20439471
-0.9114218
-0.21057029
-0.95763332
-0.21655194
-1.0063936
-0.22228801
-1.0578529
-0.2277196
-1.1121697
-0.23278118
-1.1695117
-0.2373999
-1.2300496
-0.24149038
-1.2939768
-0.24496061
-1.3614802
-0.24771181
-1.4327678
-0.24962602
-1.5080675
-0.25057283
-1.5875972
-0.25041467
-1.6715955
-0.24898815
-1.7603198
-0.2461242
-1.8540532
-0.24164027
-1.9530866
-0.23530566
-2.0577616
-0.22688941
-2.1686003
-2.2852882
-0.00032656253
-0.047745115
-0.00093339371
-0.059426601
-0.0014229237
-0.05821777
-0.002065577
-0.063159216
-0.0026385167
-0.064995875
-0.0033651632
-0.068565531
-0.0040465919
-0.071577074
-0.004833444
-0.074990912
-0.0056157427
-0.078513512
-0.0064604218
-0.082155366
-0.007344894
-0.086024036
-0.0082817785
-0.090031118
-0.009273019
-0.094236352
-0.010322192
-0.098625871
-0.01143367
-0.10321484
-0.012612024
-0.10800971
-0.013861206
-0.11302014
-0.015187202
-0.11825464
-0.01659486
-0.12372325
-0.018089888
-0.12943616
-0.019678176
-0.135404
-0.021365792
-0.14163808
-0.023159131
-0.14815006
-0.025065537
-0.15495259
-0.027090604
-0.16206004
-0.029241954
-0.16948545
-0.031525873
-0.17724504
-0.033949345
-0.18535474
-0.036519034
-0.19383243
-0.039241149
-0.20269659
-0.04212156
-0.21196792
-0.045166133
-0.22166736
-0.048380103
-0.23181844
-0.0517676
-0.24244631
-0.05533292
-0.2535771
-0.05907959
-0.265239
-0.063009783
-0.27746278
-0.067125725
-0.2902801
-0.07142869
-0.30372541
-0.075919162
-0.317835
-0.080596879
-0.33264694
-0.085461719
-0.34820221
-0.090511475
-0.36454392
-0.095744458
-0.3817175
-0.10115806
-0.39977091
-0.10674883
-0.41875505
-0.11251308
-0.43872322
-0.11844639
-0.4597321
-0.12454351
-0.48184215
-0.13079855
-0.5051159
-0.13720508
-0.52962061
-0.14375492
-0.5554277
-0.15043963
-0.58261158
-0.15724907
-0.61125269
-0.16417211
-0.64143512
-0.17119593
-0.67324895
-0.17830528
-0.70678948
-0.18548342
-0.74215855
-0.1927112
-0.77946332
-0.19996651
-0.81881895
-0.20722427
-0.86034692
-0.21445593
-0.90417654
-0.22162876
-0.95044572
-0.22870632
-0.99929998
-0.23564613
-1.0508956
-0.2424013
-1.1053956
-0.2489174
-1.162975
-0.25513204
-1.2238126
-0.26097793
-1.2881067
-0.26638106
-1.3560509
-0.27124638
-1.4278742
-0.27548567
-1.5037976
-0.27898335
-1.5840663
-0.28162046
-1.6689228
-0.2832617
-1.7586405
-0.283764
-1.8535098
-0.28296547
-1.9538401
-0.28066671
-2.0600164
-0.27668102
-2.1725428
-2.2910928
-0.00028433161
-0.047460571
-0.00087173848
-0.058838966
-0.0013216386
-0.057767627
-0.0019441909
-0.062536406
-0.0024953237
-0.064444468
-0.0031989705
-0.067861595
-0.00384538
-0.070930357
-0.0046078066
-0.074228159
-0.0053588904
-0.077762083
-0.0061712745
-0.081342616
-0.007028712
-0.08516621
-0.0079389247
-0.089120495
-0.0089063726
-0.093268469
-0.0099345691
-0.097597213
-0.011028559
-0.10212036
-0.012193176
-0.10684457
-0.013434098
-0.11177866
-0.014756762
-0.11693139
-0.016167223
-0.12231217
-0.017672314
-0.1279304
-0.019278159
-0.13379745
-0.020992391
-0.13992309
-0.022821511
-0.14632014
-0.024773054
-0.1530002
-0.026854758
-0.15997743
-0.02907357
-0.16726568
-0.03143719
-0.17488039
-0.033952646
-0.18283818
-0.036626529
-0.19115737
-0.039465783
-0.19985608
-0.042476584
-0.20895578
-0.045664078
-0.21847843
-0.049033202
-0.22844778
-0.052588785
-0.23888909
-0.056334488
-0.24982964
-0.060273023
-0.26129858
-0.064407197
-0.27332658
-0.068738773
-0.28594636
-0.073268663
-0.29919319
-0.077997804
-0.31310335
-0.082926044
-0.32771601
-0.088052904
-0.34307245
-0.09337796
-0.35921575
-0.098900419
-0.37619169
-0.10461847
-0.39404924
-0.11053059
-0.41283903
-0.1166346
-0.43261499
-0.12292826
-0.4534339
-0.12940899
-0.4753565
-0.13607324
-0.49844634
-0.14291769
-0.52277041
-0.14993805
-0.54840113
-0.15712905
-0.57541383
-0.1644852
-0.60388923
-0.1719993
-0.63391309
-0.17966342
-0.66557623
-0.1874674
-0.69897614
-0.19540079
-0.73421498
-0.20344995
-0.77140309
-0.21159945
-0.81065741
-0.21983176
-0.85210149
-0.22812611
-0.89586793
-0.23645865
-0.94209766
-0.24480122
-0.9909405
-0.25312298
-1.0425554
-0.26138687
-1.0971117
-0.269552
-1.154788
-0.27756789
-1.2157729
-0.28538196
-1.2802668
-0.29292871
-1.3484761
-0.30014288
-1.4206297
-0.30694461
-1.496963
-0.3132451
-1.5777301
-0.31893935
-1.6631899
-0.32391767
-1.7536207
-0.32806249
-1.8493198
-0.33123605
-1.9506169
-0.33328131
-2.0579224
-0.33402447
-2.1717504
-2.2917697
-0.00024597381
-0.047214396
-0.00082221294
-0.058262509
-0.0012420192
-0.057347589
-0.0018894836
-0.061888696
-0.0024216918
-0.063911999
-0.003100257
-0.067182754
-0.0037223161
-0.070308005
-0.0044447628
-0.073505401
-0.0051840666
-0.077022449
-0.0059803407
-0.080545992
-0.0068275006
-0.08431868
-0.0077291601
-0.088218442
-0.0086921814
-0.092305029
-0.0097205368
-0.096568414
-0.010819972
-0.10102045
-0.011996262
-0.10566778
-0.013255679
-0.11051871
-0.014604966
-0.11558154
-0.016050998
-0.12086553
-0.017600599
-0.12638016
-0.019262527
-0.13213484
-0.021043389
-0.1381415
-0.022952223
-0.14441053
-0.024996487
-0.15095511
-0.027184193
-0.15778884
-0.029523614
-0.16492531
-0.032022318
-0.17238068
-0.034687429
-0.180172
-0.037526479
-0.18831717
-0.040545545
-0.19683578
-0.04375028
-0.20574972
-0.047146359
-0.21508094
-0.050738184
-0.22485444
-0.05452988
-0.23509577
-0.058524611
-0.24583316
-0.062725032
-0.25709629
-0.067133189
-0.26891641
-0.071750569
-0.28132682
-0.076578694
-0.29436274
-0.081618007
-0.30806154
-0.086869192
-0.32246213
-0.092332798
-0.33760594
-0.098009092
-0.35353632
-0.10389789
-0.37029951
-0.10999986
-0.38794362
-0.11631537
-0.40651958
-0.12284424
-0.42608186
-0.12958682
-0.44668671
-0.13654321
-0.46839511
-0.14371358
-0.49127055
-0.15109713
-0.51538099
-0.15869407
-0.54079781
-0.16650292
-0.56759806
-0.1745222
-0.59586242
-0.18274993
-0.62567717
-0.19118287
-0.65713437
-0.19981723
-0.69033207
-0.20864743
-0.72537419
-0.21766704
-0.76237193
-0.22686779
-0.80144405
-0.23623883
-0.84271671
-0.24576807
-0.88632369
-0.25544031
-0.93240906
-0.26523788
-0.98112507
-0.27513915
-1.0326347
-0.28511904
-1.0871105
-0.29514762
-1.1447361
-0.3051911
-1.2057041
-0.31520708
-1.2702232
-0.32515045
-1.3385027
-0.33497139
-1.4107761
-0.34460313
-1.4872958
-0.35398144
-1.5683132
-0.36302497
-1.6541044
-0.37164701
-1.7449534
-0.37974778
-1.8411693
-0.38722688
-1.9430833
-0.39395817
-2.0511368
-0.39980691
-2.1658451
-2.2869671
-0.0002134144
-0.047000791
-0.00079136769
-0.05768435
-0.0011893041
-0.056949434
-0.0018476239
-0.061230143
-0.0023514942
-0.063407881
-0.0030238119
-0.066510173
-0.003644502
-0.069687035
-0.0043616123
-0.072787994
-0.0051026824
-0.076281064
-0.0058986608
-0.07974968
-0.0067530104
-0.083463975
-0.0076663881
-0.087304688
-0.0086471042
-0.091323912
-0.0096999983
-0.095515094
-0.010831765
-0.099888233
-0.012049176
-0.10444989
-0.013359495
-0.10920788
-0.014770173
-0.11417031
-0.016289787
-0.11934533
-0.017926427
-0.1247429
-0.019688546
-0.13037206
-0.021585257
-0.13624409
-0.0236249
-0.14237013
-0.025816391
-0.14876281
-0.028168648
-0.15543572
-0.030689258
-0.16240378
-0.033386231
-0.16968272
-0.036266998
-0.17729017
-0.039338417
-0.18524462
-0.042605771
-0.19356722
-0.046075484
-0.20227871
-0.049751335
-0.21140369
-0.053637972
-0.22096631
-0.057737981
-0.23099415
-0.062053948
-0.24151547
-0.066588539
-0.25255984
-0.07134339
-0.26415956
-0.07631974
-0.27634831
-0.081519041
-0.28916112
-0.086942829
-0.30263524
-0.092592369
-0.31680989
-0.098469234
-0.33172616
-0.1045749
-0.3474275
-0.11091179
-0.36395921
-0.11748211
-0.38136961
-0.12428812
-0.39970957
-0.13133338
-0.41903227
-0.1386203
-0.43939509
-0.14615282
-0.46085749
-0.15393422
-0.48348361
-0.16196833
-0.50734086
-0.170258
-0.53250159
-0.17880707
-0.55904185
-0.18761886
-0.58704286
-0.19669591
-0.61659165
-0.20604065
-0.64778038
-0.21565519
-0.68070742
-0.22554027
-0.71547808
-0.23569595
-0.75220417
-0.2461209
-0.7910059
-0.25681352
-0.83200965
-0.26776899
-0.87535242
-0.2789817
-0.92117908
-0.29044374
-0.96964413
-0.30214458
-1.0209131
-0.31407091
-1.0751615
-0.32620611
-1.1325761
-0.3385274
-1.1933557
-0.35101214
-1.2577088
-0.36362864
-1.3258539
-0.37633773
-1.3980319
-0.38910698
-1.4744882
-0.40188035
-1.555498
-0.41460051
-1.6413388
-0.42720104
-1.7323032
-0.43962046
-1.8286952
-0.45177223
-1.9308718
-0.463573
-2.0392762
-0.47492181
-2.1544318
-2.276261
-0.00019253161
-0.046808079
-0.00078996531
-0.05708672
-0.001184248
-0.056554942
-0.0018364419
-0.060577727
-0.0023338543
-0.062910233
-0.0030095576
-0.065834219
-0.0036443666
-0.06905196
-0.0043655625
-0.072066515
-0.0051279972
-0.075518328
-0.0059444509
-0.078932906
-0.0068273536
-0.082580732
-0.0077762981
-0.086355381
-0.0088008183
-0.090299007
-0.0099070506
-0.094408452
-0.011102805
-0.098692041
-0.012396097
-0.10315613
-0.013795526
-0.10780796
-0.015310104
-0.11265521
-0.016948661
-0.11770621
-0.018721359
-0.1229696
-0.020637226
-0.12845555
-0.022706159
-0.13417447
-0.024937212
-0.14013835
-0.027339708
-0.14635953
-0.029922371
-0.15285222
-0.032693437
-0.15963181
-0.035660039
-0.16671515
-0.038829373
-0.1741198
-0.04220688
-0.181866
-0.045798466
-0.18997444
-0.049607769
-0.19846813
-0.053638697
-0.20737138
-0.057894271
-0.21670925
-0.062376741
-0.22651008
-0.06708823
-0.23680226
-0.07203062
-0.24761559
-0.077205264
-0.25898292
-0.082614307
-0.27093711
-0.088259407
-0.28351369
-0.094143044
-0.29674909
-0.10026791
-0.31068231
-0.10663719
-0.32535393
-0.11325493
-0.34080657
-0.12012528
-0.35708542
-0.12725299
-0.37423815
-0.13464397
-0.39231453
-0.142304
-0.41136784
-0.15023968
-0.43145461
-0.15845774
-0.45263422
-0.16696565
-0.47497001
-0.17577095
-0.49852937
-0.18488211
-0.52338369
-0.19430685
-0.54960976
-0.20405352
-0.57728815
-0.21412991
-0.60650648
-0.22454485
-0.63735583
-0.23530557
-0.66993618
-0.24641984
-0.70435229
-0.25789489
-0.74071648
-0.2697375
-0.77914943
-0.28195314
-0.81977881
-0.29454687
-0.86274203
-0.30752239
-0.90818529
-0.32088201
-0.95626449
-0.33462674
-1.0071464
-0.34875525
-1.0610089
-0.36326354
-1.1180414
-0.37814442
-1.1784457
-0.39339097
-1.2424304
-0.40898333
-1.3102268
-0.4249094
-1.3820678
-0.44114256
-1.4582136
-0.45765888
-1.5389364
-0.4744255
-1.6245226
-0.49139604
-1.7152783
-0.50852774
-1.8115034
-0.52576924
-1.9135651
-0.54307474
-2.0219046
-0.56037264
-2.1370607
-2.259173
-0.00017306275
-0.046634844
-0.00079841758
-0.05646118
-0.001196906
-0.056156256
-0.0018612911
-0.059913131
-0.0023752147
-0.062396084
-0.0030652008
-0.065143994
-0.0037279337
-0.068388972
-0.0044720103
-0.071322168
-0.0052731662
-0.074716884
-0.0061319913
-0.078073775
-0.007067209
-0.081645188
-0.0080790174
-0.085343226
-0.0091777986
-0.089199855
-0.010371392
-0.093214463
-0.011669004
-0.097394009
-0.01308015
-0.10174454
-0.014614794
-0.10627283
-0.016283279
-0.11098621
-0.018096133
-0.11589281
-0.020063566
-0.12100158
-0.022196282
-0.1263222
-0.024504176
-0.1318659
-0.026996728
-0.13764508
-0.029683374
-0.14367211
-0.032572088
-0.14996268
-0.035670275
-0.15653274
-0.038985164
-0.16339932
-0.042521536
-0.17058241
-0.046284437
-0.17810201
-0.050277524
-0.18598017
-0.054503882
-0.1942405
-0.058966178
-0.20290772
-0.063665383
-0.21200857
-0.068604352
-0.22156952
-0.073784157
-0.23162074
-0.079206433
-0.24219147
-0.084873801
-0.25331355
-0.090788322
-0.26502043
-0.096954017
-0.27734565
-0.10337455
-0.29032603
-0.11005448
-0.30399963
-0.11699933
-0.3184061
-0.12421579
-0.33358689
-0.13171079
-0.34958692
-0.13949243
-0.36645271
-0.14756969
-0.38423313
-0.15595196
-0.40298106
-0.16464946
-0.42275221
-0.17367342
-0.44360492
-0.1830351
-0.46560251
-0.19274695
-0.48881117
-0.20282088
-0.5133028
-0.21327087
-0.53915217
-0.22410982
-0.56644089
-0.23535212
-0.59525506
-0.24701128
-0.62568668
-0.25910227
-0.65783422
-0.27163929
-0.69180322
-0.28463676
-0.72770577
-0.29810993
-0.7656617
-0.31207252
-0.80580022
-0.32653896
-0.84825802
-0.34152317
-0.89318175
-0.35703834
-0.94072808
-0.37309654
-0.99106489
-0.38970955
-1.0443702
-0.40688768
-1.1008349
-0.42464004
-1.1606623
-0.44296964
-1.2240666
-0.46188125
-1.2912777
-0.48137486
-1.3625332
-0.50145074
-1.4380928
-0.52210294
-1.5182349
-0.54331656
-1.6032548
-0.56508193
-1.6934531
-0.58737224
-1.789147
-0.61017608
-1.8906902
-0.63346649
-1.9985409
-0.65721516
-2.113229
-2.2351586
-0.0001592221
-0.04647546
-0.00082703619
-0.05579319
-0.0012356169
-0.055747486
-0.0019282634
-0.059220285
-0.0024734446
-0.061850689
-0.0031911924
-0.064426018
-0.0039040206
-0.067675901
-0.0046913842
-0.070534546
-0.0055545594
-0.073853433
-0.0064831495
-0.077144892
-0.0075002425
-0.080627782
-0.0086081769
-0.084234958
-0.0098184959
-0.08798918
-0.011141178
-0.091891401
-0.012587022
-0.095947758
-0.014167357
-0.10016377
-0.015893604
-0.10454612
-0.017777317
-0.109102
-0.019829966
-0.11383963
-0.022062719
-0.11876826
-0.024486039
-0.12389827
-0.027110177
-0.12924111
-0.029944572
-0.13480998
-0.0329969
-0.14061903
-0.03627472
-0.14668405
-0.039783905
-0.15302269
-0.043529109
-0.15965318
-0.047514351
-0.16659616
-0.051742382
-0.17387289
-0.056215118
-0.18150626
-0.060933878
-0.18952048
-0.065900331
-0.19793991
-0.071115543
-0.20679189
-0.076580937
-0.21610254
-0.082298726
-0.22590124
-0.088271369
-0.23621697
-0.094502183
-0.24708073
-0.10099616
-0.25852427
-0.10775765
-0.27058182
-0.11479369
-0.28328743
-0.12211123
-0.29667933
-0.12971964
-0.31079469
-0.13762743
-0.32567583
-0.1458455
-0.34136528
-0.15438593
-0.35790841
-0.16326046
-0.37535438
-0.17248288
-0.39375404
-0.18206774
-0.41316233
-0.19202984
-0.43363733
-0.20238563
-0.45524072
-0.21315149
-0.47803876
-0.22434579
-0.50210132
-0.23598611
-0.52750399
-0.2480917
-0.55432668
-0.26068279
-0.5826545
-0.27377965
-0.6125794
-0.28740318
-0.64419924
-0.30157592
-0.67761787
-0.31632007
-0.71294773
-0.33165815
-0.75030831
-0.34761394
-0.78982758
-0.36421166
-0.83164173
-0.38147543
-0.87589752
-0.39942928
-0.9227517
-0.41809889
-0.97237045
-0.43750867
-1.024933
-0.45768295
-1.0806304
-0.47864552
-1.1396663
-0.50041775
-1.2022576
-0.52302348
-1.2686315
-0.54648092
-1.3390313
-0.57080746
-1.4137175
-0.59602203
-1.4929668
-0.62214227
-1.5770754
-0.64917238
-1.6663572
-0.6771207
-1.7611261
-0.70599719
-1.8617363
-0.73581391
-1.9686425
-0.76656771
-2.082381
-2.2035967
-0.00015157826
-0.046323728
-0.00088114454
-0.055063457
-0.0013022703
-0.055326182
-0.0020398561
-0.058482509
-0.0026339075
-0.061256433
-0.0033978454
-0.063661863
-0.0041835037
-0.066890011
-0.005039264
-0.069678539
-0.0059902146
-0.072902219
-0.0070201337
-0.076114691
-0.008154539
-0.079493075
-0.0093993312
-0.082989845
-0.010767617
-0.086620551
-0.012271486
-0.090387165
-0.01392363
-0.094295222
-0.015736763
-0.098350215
-0.017723621
-0.10255881
-0.019896545
-0.10692859
-0.022267512
-0.11146814
-0.024847683
-0.11618753
-0.027647435
-0.12109792
-0.030675647
-0.12621226
-0.033939984
-0.13154495
-0.037447127
-0.13711115
-0.04120152
-0.14292886
-0.045207123
-0.14901622
-0.049465668
-0.1553937
-0.053978809
-0.16208202
-0.058747451
-0.16910317
-0.063771811
-0.17648074
-0.069052718
-0.18423831
-0.074590655
-0.19240061
-0.08038749
-0.20099359
-0.086445198
-0.21004325
-0.092767482
-0.21957723
-0.099358192
-0.2296244
-0.10622353
-0.24021337
-0.1133697
-0.25137591
-0.12080574