/*--------------------------------*- C++ -*----------------------------------*\
| =========                 |                                                 |
| \\      /  F ield         | OpenFOAM: The Open Source CFD Toolbox           |
|  \\    /   O peration     | Version:  2512                                  |
|   \\  /    A nd           | Website:  www.openfoam.com                      |
|    \\/     M anipulation  |                                                 |
\*---------------------------------------------------------------------------*/
FoamFile
{
    version     2.0;
    format      ascii;
    arch        "LSB;label=32;scalar=64";
    class       volScalarField;
    location    "0.143";
    object      rho;
}
// * * * * * * * * * * * * * * * * * * * * * * * * * * * * * * * * * * * * * //

dimensions      [1 -3 0 0 0 0 0];

internalField   nonuniform List<scalar> 
16000
(
1.0644161
1.0950811
1.0785353
1.0888173
1.0828465
1.087216
1.0853143
1.0874714
1.0872198
1.0885133
1.0889993
1.0900061
1.0908123
1.0917812
1.0927416
1.0937662
1.0948266
1.0959324
1.0970805
1.0982715
1.0995051
1.1007809
1.1020983
1.1034568
1.1048554
1.106293
1.1077684
1.1092799
1.1108256
1.1124036
1.1140112
1.1156459
1.1173047
1.1189842
1.120681
1.1223913
1.1241111
1.1258362
1.1275623
1.129285
1.1309999
1.1327024
1.134388
1.1360526
1.1376918
1.1393017
1.1408786
1.1424188
1.1439193
1.1453772
1.1467899
1.1481553
1.1494715
1.150737
1.1519507
1.1531116
1.1542192
1.1552732
1.1562735
1.1572202
1.1581135
1.1589538
1.1597415
1.1604769
1.1611604
1.1617922
1.162373
1.1629033
1.1633841
1.1638158
1.1641981
1.1645304
1.164813
1.165048
1.165238
1.1653891
1.1654916
1.1654543
1.1658402
1.1648748
1.06118
1.0924017
1.0753036
1.0861316
1.0798386
1.0845824
1.082494
1.0848875
1.0845982
1.0860099
1.0865501
1.0876323
1.08852
1.0895644
1.0906108
1.0917198
1.0928698
1.0940673
1.0953101
1.0965985
1.0979318
1.0993095
1.1007307
1.1021946
1.1036997
1.1052448
1.1068279
1.1084471
1.1101
1.1117839
1.113496
1.1152329
1.1169911
1.1187668
1.1205557
1.1223536
1.124156
1.1259582
1.1277555
1.1295429
1.1313158
1.1330695
1.1347993
1.136501
1.1381704
1.1398036
1.1413972
1.142948
1.1444533
1.1459106
1.1473179
1.1486737
1.1499765
1.1512257
1.1524204
1.1535604
1.1546457
1.1556763
1.1566528
1.1575756
1.1584453
1.1592626
1.1600281
1.1607424
1.161406
1.1620193
1.1625828
1.1630972
1.1635631
1.1639812
1.1643511
1.164672
1.1649435
1.1651675
1.1653477
1.1654872
1.1655645
1.1655875
1.1658057
1.1649906
1.0583798
1.0899511
1.072553
1.0836348
1.0772508
1.082146
1.0800801
1.0825539
1.0823379
1.0838146
1.0844431
1.0855973
1.0865766
1.0877048
1.0888449
1.0900476
1.0912955
1.0925933
1.093939
1.0953325
1.0967729
1.0982593
1.0997906
1.1013654
1.1029822
1.1046389
1.1063334
1.108063
1.109825
1.111616
1.1134325
1.1152705
1.1171259
1.1189941
1.1208705
1.12275
1.1246275
1.126498
1.1283563
1.1301971
1.1320156
1.1338069
1.1355665
1.13729
1.1389736
1.1406138
1.1422075
1.143752
1.1452451
1.146685
1.1480705
1.1494004
1.1506743
1.1518919
1.1530532
1.1541584
1.1552081
1.156203
1.1571439
1.1580317
1.1588674
1.1596519
1.1603861
1.1610708
1.1617066
1.162294
1.1628335
1.1633256
1.1637712
1.1641705
1.1645235
1.1648288
1.165086
1.1652968
1.1654653
1.1655898
1.1656528
1.1657039
1.1657752
1.1651661
1.0558925
1.0877712
1.0700045
1.08143
1.0749016
1.0800518
1.0779692
1.0805773
1.0804223
1.0819896
1.0827161
1.0839564
1.0850421
1.0862674
1.0875148
1.088824
1.0901823
1.0915921
1.0930522
1.0945619
1.0961201
1.0977256
1.099377
1.1010725
1.10281
1.104587
1.1064007
1.1082479
1.1101249
1.1120278
1.1139522
1.1158934
1.1178463
1.1198058
1.1217663
1.1237223
1.125668
1.127598
1.1295065
1.1313883
1.1332383
1.1350516
1.1368239
1.1385512
1.1402301
1.1418575
1.1434309
1.1449485
1.1464088
1.1478107
1.1491538
1.1504378
1.1516631
1.1528301
1.1539394
1.1549922
1.1559895
1.1569324
1.1578224
1.1586607
1.1594486
1.1601874
1.1608782
1.1615219
1.1621192
1.1626708
1.163177
1.1636383
1.1640554
1.1644287
1.1647578
1.1650413
1.1652783
1.1654704
1.1656203
1.1657248
1.1657781
1.1658169
1.1658131
1.1653188
1.0537879
1.0859898
1.0679048
1.0796375
1.0728886
1.0783335
1.0762661
1.078997
1.0789329
1.0805917
1.0814367
1.0827702
1.0839738
1.0853055
1.0866686
1.0880931
1.0895701
1.0911009
1.0926842
1.0943191
1.0960043
1.0977382
1.0995188
1.1013436
1.10321
1.1051147
1.107054
1.1090239
1.1110197
1.1130365
1.1150691
1.1171118
1.1191586
1.1212036
1.1232404
1.1252629
1.1272648
1.1292401
1.1311831
1.1330884
1.1349509
1.1367661
1.13853
1.1402393
1.1418911
1.1434832
1.145014
1.1464824
1.1478881
1.1492308
1.1505111
1.1517297
1.1528876
1.1539862
1.155027
1.1560115
1.1569415
1.1578187
1.1586448
1.1594215
1.1601505
1.1608331
1.1614707
1.1620643
1.1626147
1.1631226
1.1635882
1.164012
1.1643945
1.164736
1.1650359
1.1652928
1.1655055
1.1656749
1.1658021
1.1658852
1.1659256
1.1659394
1.1658743
1.1654953
1.0520823
1.0845908
1.0662267
1.07827
1.071487
1.0770555
1.0749971
1.0778797
1.0779177
1.079675
1.0806484
1.0820779
1.0834054
1.0848508
1.0863377
1.0878877
1.0894945
1.0911584
1.0928778
1.0946513
1.0964768
1.0983521
1.1002742
1.1022401
1.1042458
1.1062872
1.1083596
1.1104576
1.1125757
1.1147078
1.1168474
1.1189879
1.1211224
1.123244
1.1253457
1.1274208
1.1294626
1.131465
1.1334222
1.135329
1.1371808
1.1389736
1.1407042
1.1423701
1.1439693
1.1455009
1.1469641
1.1483593
1.1496869
1.1509481
1.1521442
1.1532772
1.1543488
1.1553612
1.1563167
1.1572175
1.1580658
1.1588638
1.1596136
1.1603172
1.1609764
1.1615929
1.162168
1.162703
1.1631985
1.1636553
1.1640735
1.1644534
1.1647954
1.1650996
1.1653653
1.1655908
1.1657749
1.1659175
1.1660178
1.1660776
1.1661021
1.1660818
1.1659693
1.1656848
1.0507717
1.0835869
1.0649699
1.0773186
1.0704766
1.0762263
1.0742409
1.0772302
1.0774007
1.079223
1.080334
1.0818682
1.0833337
1.0849098
1.0865381
1.0882325
1.0899881
1.091804
1.093678
1.0956077
1.0975903
1.0996225
1.1017005
1.1038198
1.1059756
1.1081622
1.1103737
1.1126034
1.1148444
1.1170894
1.1193307
1.1215606
1.1237712
1.1259548
1.1281039
1.1302114
1.1322707
1.1342755
1.1362207
1.1381014
1.139914
1.1416554
1.1433234
1.1449169
1.1464352
1.1478786
1.149248
1.1505446
1.1517704
1.1529277
1.1540189
1.1550468
1.1560143
1.1569242
1.1577794
1.1585826
1.1593366
1.1600439
1.1607069
1.1613277
1.1619083
1.1624505
1.1629557
1.163425
1.1638593
1.1642589
1.1646242
1.164955
1.1652517
1.1655141
1.1657414
1.1659319
1.1660841
1.1661962
1.1662668
1.1663019
1.1663067
1.1662451
1.166094
1.165903
1.0497907
1.082914
1.0640653
1.076771
1.0698707
1.0758418
1.0738715
1.0770397
1.0772534
1.0791996
1.0804887
1.082159
1.0837915
1.0855266
1.0873218
1.0891854
1.0911133
1.0931035
1.0951533
1.0972592
1.0994173
1.1016232
1.1038715
1.1061566
1.1084718
1.1108102
1.113164
1.1155252
1.1178854
1.1202357
1.1225674
1.1248716
1.1271397
1.1293635
1.1315352
1.1336477
1.1356947
1.1376705
1.1395708
1.1413921
1.1431316
1.1447881
1.1463608
1.14785
1.149257
1.1505834
1.1518316
1.1530044
1.1541051
1.155137
1.1561037
1.1570089
1.1578561
1.1586489
1.1593907
1.1600847
1.1607338
1.1613408
1.1619083
1.1624385
1.1629334
1.1633948
1.1638241
1.1642223
1.1645902
1.164928
1.1652359
1.1655136
1.1657611
1.1659782
1.1661637
1.1663162
1.1664337
1.1665125
1.1665511
1.1665608
1.1665421
1.1664339
1.1662529
1.1661514
1.049158
1.0825811
1.0635173
1.0766515
1.0695843
1.07568
1.0738481
1.0771239
1.0776541
1.0797198
1.0812125
1.0830417
1.0848638
1.0867831
1.0887697
1.0908272
1.0929516
1.0951396
1.0973873
1.0996899
1.1020419
1.1044373
1.106869
1.1093294
1.1118102
1.1143023
1.1167964
1.1192825
1.1217507
1.1241908
1.1265929
1.1289474
1.1312452
1.133478
1.1356381
1.1377191
1.1397156
1.1416233
1.1434393
1.1451617
1.1467898
1.1483241
1.149766
1.1511176
1.152382
1.1535626
1.1546634
1.1556885
1.1566425
1.1575298
1.1583549
1.1591222
1.1598358
1.1604998
1.1611178
1.1616934
1.1622296
1.1627293
1.1631951
1.1636291
1.1640334
1.1644096
1.1647589
1.1650822
1.1653803
1.1656531
1.1659006
1.1661225
1.1663183
1.1664874
1.166629
1.1667414
1.1668221
1.1668657
1.1668712
1.1668553
1.1668095
1.1666519
1.1664508
1.1664354
1.0489176
1.0826339
1.0633731
1.0768691
1.0697365
1.0762153
1.0745304
1.0779212
1.0786353
1.0808446
1.0825714
1.0845896
1.0866292
1.0887628
1.0909692
1.0932487
1.0955962
1.0980071
1.1004757
1.1029952
1.1055584
1.1081569
1.1107815
1.1134222
1.1160685
1.1187092
1.1213328
1.1239278
1.1264825
1.1289858
1.1314269
1.133796
1.136084
1.1382831
1.1403869
1.1423902
1.1442895
1.1460826
1.1477687
1.1493485
1.1508236
1.1521967
1.1534717
1.1546527
1.1557446
1.1567526
1.1576821
1.1585387
1.1593278
1.1600547
1.1607245
1.1613422
1.1619123
1.162439
1.1629262
1.1633773
1.1637955
1.1641836
1.164544
1.1648788
1.1651897
1.1654783
1.1657455
1.1659921
1.1662186
1.1664248
1.1666104
1.1667749
1.1669175
1.1670375
1.1671338
1.1672052
1.1672479
1.1672551
1.1672279
1.1671864
1.1671099
1.1669028
1.1666936
1.1667589
1.0491428
1.0831486
1.0637042
1.0774248
1.0704528
1.0770681
1.0757414
1.0791795
1.08028
1.082657
1.0846523
1.0868957
1.0891843
1.0915654
1.0940232
1.0965549
1.0991538
1.1018132
1.104525
1.1072801
1.1100684
1.1128786
1.115699
1.1185168
1.1213189
1.1240917
1.1268218
1.1294961
1.1321017
1.1346268
1.1370608
1.1393942
1.1416192
1.1437297
1.1457213
1.1475915
1.1493394
1.1509658
1.1524729
1.1538642
1.1551441
1.1563181
1.157392
1.1583722
1.1592654
1.1600781
1.1608171
1.1614887
1.1620992
1.1626544
1.1631598
1.1636205
1.1640412
1.164426
1.1647788
1.1651029
1.1654012
1.1656763
1.1659303
1.1661651
1.1663823
1.166583
1.1667679
1.1669378
1.1670926
1.1672321
1.1673558
1.1674628
1.1675522
1.1676229
1.1676739
1.167704
1.1677084
1.1676794
1.1676211
1.1675541
1.1674432
1.1671885
1.1669836
1.1671267
1.0498924
1.0841864
1.064597
1.0786959
1.0719258
1.078708
1.077602
1.0812636
1.0826771
1.0852555
1.0875538
1.0900634
1.0926374
1.0953034
1.0980478
1.1008644
1.1037443
1.1066773
1.1096524
1.1126569
1.1156774
1.1186992
1.1217072
1.1246857
1.1276189
1.1304909
1.1332868
1.1359923
1.1385944
1.1410818
1.143445
1.1456767
1.1477716
1.1497267
1.1515411
1.1532159
1.154754
1.1561597
1.1574386
1.1585974
1.1596434
1.1605843
1.1614282
1.1621832
1.1628573
1.1634581
1.1639931
1.1644692
1.1648931
1.1652706
1.1656074
1.1659084
1.1661781
1.1664205
1.166639
1.1668367
1.1670162
1.1671797
1.1673291
1.1674658
1.167591
1.1677056
1.1678101
1.1679047
1.1679894
1.1680637
1.1681268
1.1681776
1.1682149
1.1682373
1.1682441
1.1682338
1.1682005
1.1681368
1.1680502
1.1679578
1.1678089
1.1675124
1.1673258
1.1675374
1.0511535
1.0857318
1.0660337
1.0804808
1.0740216
1.08096
1.0802732
1.0840823
1.0859159
1.0887431
1.0913878
1.0942135
1.0971167
1.1001101
1.1031797
1.1063153
1.1095041
1.1127319
1.1159832
1.1192413
1.1224884
1.1257061
1.1288757
1.1319783
1.1349959
1.137911
1.1407082
1.1433734
1.1458953
1.148265
1.1504761
1.1525252
1.1544115
1.1561365
1.157704
1.1591196
1.1603904
1.1615246
1.1625312
1.1634198
1.1642002
1.1648821
1.165475
1.1659883
1.1664306
1.1668103
1.167135
1.1674118
1.1676471
1.1678467
1.1680158
1.1681591
1.1682806
1.1683838
1.1684717
1.168547
1.1686118
1.1686678
1.1687165
1.168759
1.1687961
1.1688282
1.1688557
1.1688785
1.1688961
1.168908
1.1689132
1.1689102
1.1688977
1.1688741
1.1688388
1.1687897
1.1687202
1.1686248
1.1685138
1.1683961
1.1682064
1.1678781
1.1677238
1.1679888
1.0530118
1.0878635
1.0681219
1.0830172
1.0768165
1.0840182
1.0838094
1.0878245
1.0901257
1.0932613
1.0963012
1.0994987
1.1027805
1.1061468
1.1095803
1.1130655
1.1165842
1.1201171
1.1236432
1.1271408
1.1305875
1.1339605
1.137238
1.1403987
1.1434235
1.1462955
1.1490007
1.1515282
1.1538707
1.1560242
1.1579881
1.1597648
1.1613593
1.1627789
1.1640326
1.1651307
1.1660844
1.1669054
1.1676057
1.1681969
1.1686907
1.1690978
1.1694288
1.1696933
1.1699002
1.1700578
1.1701733
1.1702536
1.1703045
1.1703313
1.1703386
1.1703305
1.1703103
1.1702811
1.1702453
1.1702049
1.1701615
1.1701164
1.1700706
1.1700247
1.1699792
1.1699341
1.1698895
1.169845
1.1698
1.1697535
1.1697045
1.1696513
1.1695923
1.1695261
1.1694517
1.1693662
1.169263
1.1691401
1.1690093
1.1688663
1.1686347
1.1682886
1.1681805
1.1684791
1.0555253
1.0906284
1.0709813
1.0863117
1.0804892
1.0879626
1.0883562
1.0926118
1.0954576
1.0989798
1.1024757
1.1061084
1.1098215
1.1136041
1.1174335
1.1212872
1.1251406
1.1289675
1.132741
1.1364335
1.1400178
1.1434682
1.1467607
1.1498746
1.1527926
1.1555017
1.1579931
1.1602627
1.1623102
1.1641393
1.1657568
1.1671723
1.1683973
1.169445
1.1703292
1.1710644
1.1716651
1.1721456
1.1725194
1.1727997
1.1729986
1.1731273
1.1731963
1.1732148
1.1731914
1.1731336
1.1730481
1.1729409
1.1728169
1.1726809
1.1725365
1.1723869
1.1722351
1.1720831
1.1719328
1.1717856
1.1716426
1.1715046
1.171372
1.171245
1.1711238
1.1710081
1.1708975
1.1707914
1.170689
1.1705892
1.1704907
1.1703917
1.1702905
1.1701858
1.1700761
1.1699575
1.1698241
1.1696784
1.1695326
1.1693647
1.1690914
1.1687437
1.1686958
1.169004
1.0587609
1.0940583
1.0747764
1.0904764
1.0852397
1.0929496
1.094082
1.0986595
1.1021298
1.1061296
1.1101474
1.1142759
1.1184658
1.1226954
1.126934
1.1311506
1.1353122
1.1393847
1.1433346
1.1471293
1.1507391
1.154138
1.1573049
1.1602239
1.1628849
1.1652835
1.1674205
1.1693014
1.1709357
1.1723361
1.1735175
1.1744967
1.1752912
1.1759186
1.1763968
1.1767428
1.176973
1.1771027
1.1771462
1.1771165
1.1770254
1.1768836
1.1767008
1.1764852
1.1762444
1.175985
1.1757124
1.1754317
1.175147
1.1748617
1.1745788
1.1743008
1.1740295
1.1737664
1.1735128
1.1732695
1.1730369
1.1728152
1.1726047
1.1724051
1.172216
1.1720369
1.1718672
1.171706
1.1715523
1.171405
1.1712623
1.1711226
1.1709842
1.1708456
1.1707049
1.1705572
1.1703982
1.170235
1.1700778
1.1698869
1.1695752
1.1692386
1.1692653
1.1695548
1.062801
1.0982413
1.0795945
1.0956731
1.0912158
1.0992312
1.1012572
1.1062522
1.1104259
1.1149922
1.1195911
1.1242627
1.128956
1.1336364
1.138262
1.1427907
1.1471795
1.1513875
1.1553769
1.1591148
1.162575
1.1657383
1.1685932
1.1711353
1.1733673
1.1752976
1.1769395
1.17831
1.1794286
1.1803168
1.1809964
1.1814895
1.1818177
1.1820017
1.1820607
1.182013
1.1818749
1.1816614
1.1813861
1.181061
1.1806966
1.1803024
1.1798866
1.1794561
1.1790171
1.1785749
1.1781337
1.1776973
1.1772687
1.1768505
1.1764446
1.1760526
1.1756757
1.1753146
1.1749699
1.1746419
1.1743304
1.1740354
1.1737564
1.173493
1.1732444
1.1730098
1.1727884
1.172579
1.1723806
1.1721917
1.1720108
1.1718359
1.1716656
1.1714983
1.1713312
1.1711591
1.1709798
1.1708041
1.1706381
1.1704275
1.1700879
1.169768
1.1698704
1.1701397
1.0678319
1.1036344
1.0856896
1.1022307
1.0987707
1.1071424
1.1102105
1.115725
1.1206694
1.1258822
1.1311078
1.1363443
1.1415291
1.1466104
1.1515325
1.1562421
1.1606905
1.1648359
1.1686452
1.1720952
1.175173
1.1778752
1.1802073
1.1821821
1.1838184
1.1851392
1.1861703
1.186939
1.1874731
1.1877998
1.1879456
1.1879351
1.1877914
1.1875354
1.1871863
1.1867611
1.186275
1.1857415
1.1851721
1.1845771
1.1839653
1.1833443
1.1827205
1.1820994
1.1814855
1.1808826
1.1802937
1.1797215
1.1791679
1.1786343
1.1781219
1.1776314
1.1771632
1.1767176
1.1762945
1.1758935
1.1755143
1.1751561
1.1748184
1.1745002
1.1742006
1.1739185
1.1736528
1.1734024
1.1731659
1.1729419
1.1727285
1.1725243
1.1723276
1.1721367
1.1719481
1.1717567
1.1715633
1.1713798
1.1712059
1.1709793
1.1706295
1.1703353
1.1704985
1.1707544
1.0741477
1.1104703
1.0932619
1.1104968
1.1082645
1.1170317
1.1212964
1.1274573
1.1332371
1.1391578
1.145019
1.1507784
1.1563559
1.1616825
1.1666936
1.171335
1.1755648
1.1793549
1.1826911
1.1855723
1.1880088
1.1900201
1.1916326
1.1928777
1.1937896
1.1944034
1.1947543
1.1948761
1.1948009
1.1945582
1.1941752
1.1936762
1.1930831
1.1924152
1.1916892
1.1909201
1.1901203
1.189301
1.1884715
1.1876396
1.186812
1.1859943
1.1851911
1.1844062
1.1836426
1.1829026
1.1821882
1.1815007
1.1808411
1.1802099
1.1796075
1.1790338
1.1784888
1.1779719
1.1774827
1.1770203
1.176584
1.1761729
1.1757858
1.1754217
1.1750793
1.1747575
1.174455
1.1741704
1.1739023
1.1736492
1.1734095
1.1731815
1.1729639
1.1727545
1.1725492
1.1723441
1.1721426
1.1719561
1.171775
1.1715343
1.1711895
1.1709416
1.1711528
1.1713756
1.0820216
1.1190149
1.102788
1.1207395
1.1201158
1.1293651
1.1349883
1.14194
1.1485842
1.1551947
1.1615868
1.167684
1.1733952
1.1786495
1.183393
1.1875915
1.1912306
1.1943132
1.1968573
1.1988923
1.2004561
1.2015915
1.2023437
1.2027585
1.2028802
1.2027507
1.2024088
1.2018899
1.2012257
1.2004443
1.1995703
1.1986253
1.1976278
1.1965937
1.1955367
1.1944682
1.1933979
1.1923339
1.1912829
1.1902506
1.1892413
1.1882587
1.1873056
1.1863842
1.1854961
1.1846425
1.1838241
1.1830413
1.1822941
1.1815823
1.1809056
1.1802634
1.179655
1.1790794
1.1785357
1.1780228
1.1775396
1.1770848
1.1766572
1.1762554
1.1758781
1.1755239
1.1751913
1.1748791
1.1745857
1.1743094
1.1740489
1.1738026
1.1735691
1.173346
1.1731289
1.1729156
1.1727118
1.1725262
1.1723401
1.1720894
1.1717598
1.1715711
1.1718226
1.1719924
1.0916604
1.1295672
1.1150311
1.1335653
1.1350158
1.1448652
1.1519289
1.1597279
1.1671184
1.1741994
1.1807953
1.1868205
1.1922019
1.1968989
1.2008974
1.2042082
1.2068614
1.2089015
1.2103825
1.2113633
1.2119043
1.2120647
1.2119007
1.211464
1.2108016
1.2099553
1.2089619
1.2078534
1.2066575
1.2053976
1.204094
1.2027635
1.2014203
1.2000762
1.1987412
1.1974231
1.1961286
1.194863
1.1936304
1.1924343
1.1912769
1.1901603
1.1890857
1.1880539
1.1870652
1.1861198
1.1852175
1.1843577
1.1835399
1.1827632
1.1820266
1.1813291
1.1806695
1.1800465
1.1794589
1.1789052
1.1783842
1.1778943
1.1774341
1.1770021
1.1765969
1.1762169
1.1758607
1.1755267
1.1752135
1.1749195
1.1746433
1.1743837
1.174139
1.1739063
1.173682
1.1734657
1.1732642
1.1730821
1.1728934
1.1726401
1.1723361
1.1722077
1.1724824
1.1725916
1.1038689
1.1430325
1.1307844
1.1499531
1.1539087
1.1643824
1.1727183
1.1811494
1.1888681
1.195886
1.2020755
1.2073927
1.2118255
1.2153981
1.2181597
1.2201777
1.2215295
1.2222968
1.2225603
1.222397
1.2218778
1.2210666
1.2200197
1.2187864
1.2174088
1.215923
1.2143593
1.2127432
1.211096
1.2094352
1.2077752
1.206128
1.2045031
1.2029081
1.2013493
1.1998313
1.1983581
1.1969322
1.1955557
1.19423
1.1929558
1.1917335
1.1905631
1.1894443
1.1883764
1.1873588
1.1863903
1.1854699
1.1845964
1.1837684
1.1829845
1.1822433
1.1815432
1.1808828
1.1802604
1.1796746
1.1791236
1.178606
1.1781202
1.1776646
1.1772375
1.1768376
1.1764631
1.1761127
1.1757847
1.1754777
1.1751904
1.1749216
1.1746695
1.1744312
1.1742039
1.1739889
1.173793
1.1736158
1.1734271
1.1731799
1.1729108
1.1728339
1.173107
1.1731649
1.1201171
1.1605253
1.1513866
1.1709041
1.1776305
1.1885127
1.1974931
1.2058683
1.213101
1.2192123
1.2241827
1.2280623
1.2309297
1.2328874
1.2340473
1.2345231
1.2344236
1.2338491
1.232889
1.2316218
1.2301149
1.2284251
1.2266005
1.2246807
1.2226985
1.2206808
1.2186495
1.2166222
1.2146131
1.2126336
1.2106926
1.2087971
1.2069525
1.2051627
1.2034308
1.2017588
1.2001479
1.1985989
1.1971119
1.1956868
1.194323
1.1930197
1.1917758
1.1905902
1.1894615
1.1883882
1.1873688
1.1864016
1.185485
1.1846173
1.1837967
1.1830215
1.18229
1.1816004
1.180951
1.18034
1.1797658
1.1792268
1.1787211
1.1782473
1.1778036
1.1773885
1.1770005
1.1766379
1.1762993
1.1759833
1.1756888
1.1754143
1.1751581
1.1749174
1.1746905
1.1744801
1.1742916
1.1741197
1.1739335
1.1736994
1.1734706
1.1734377
1.1736958
1.1737155
1.1420582
1.183273
1.1781502
1.1972691
1.2062834
1.2168854
1.2253669
1.2325296
1.2381816
1.2424349
1.2454037
1.2472471
1.2481282
1.2482076
1.2476328
1.246535
1.2450272
1.2432048
1.2411474
1.2389203
1.2365766
1.2341591
1.2317023
1.2292336
1.2267745
1.2243422
1.2219499
1.2196077
1.2173236
1.2151032
1.2129507
1.2108692
1.2088604
1.2069255
1.2050647
1.2032781
1.201565
1.1999244
1.1983553
1.1968563
1.1954257
1.1940618
1.192763
1.1915273
1.1903528
1.1892376
1.1881796
1.1871769
1.1862276
1.1853296
1.184481
1.1836798
1.1829241
1.1822121
1.1815419
1.1809116
1.1803196
1.1797641
1.1792433
1.1787557
1.1782995
1.1778732
1.1774752
1.177104
1.1767582
1.1764364
1.1761376
1.1758602
1.1756024
1.1753619
1.1751382
1.1749345
1.174754
1.1745878
1.1744071
1.1741926
1.1740071
1.17401
1.1742375
1.1742051
1.1722872
1.2118666
1.2119632
1.2296789
1.2386095
1.2475291
1.2541048
1.2588665
1.2619326
1.2635826
1.2640571
1.2635909
1.2623865
1.2606162
1.2584223
1.2559202
1.253202
1.2503408
1.2473938
1.2444058
1.2414113
1.2384367
1.2355023
1.2326235
1.2298114
1.2270746
1.2244188
1.2218481
1.2193651
1.2169711
1.2146666
1.2124515
1.2103251
1.208286
1.2063329
1.204464
1.2026774
1.200971
1.1993426
1.1977899
1.1963108
1.1949028
1.1935637
1.1922912
1.1910829
1.1899365
1.1888498
1.1878205
1.1868466
1.1859257
1.1850558
1.1842348
1.1834607
1.1827315
1.1820453
1.1814002
1.1807945
1.1802264
1.1796941
1.179196
1.1787304
1.1782958
1.1778907
1.1775135
1.1771628
1.1768376
1.1765365
1.1762581
1.1760006
1.1757623
1.1755435
1.1753471
1.175174
1.1750134
1.1748418
1.1746522
1.1745075
1.1745307
1.174718
1.1746641
1.2133232
1.2479014
1.2508623
1.2648601
1.2724036
1.2779851
1.2810992
1.2824314
1.2822966
1.2810638
1.2790092
1.2763617
1.2732981
1.2699555
1.266438
1.2628241
1.2591729
1.2555282
1.2519223
1.248379
1.2449151
1.2415428
1.2382701
1.2351026
1.2320434
1.229094
1.2262548
1.2235253
1.2209041
1.2183895
1.2159794
1.2136712
1.2114625
1.2093505
1.2073324
1.2054053
1.2035663
1.2018127
1.2001416
1.19855
1.1970354
1.195595
1.194226
1.1929258
1.1916919
1.1905219
1.1894131
1.1883633
1.1873701
1.1864312
1.1855445
1.1847077
1.1839189
1.1831759
1.1824768
1.1818198
1.181203
1.1806246
1.1800829
1.1795764
1.1791032
1.178662
1.1782512
1.1778695
1.1775154
1.1771878
1.1768855
1.1766071
1.1763508
1.1761157
1.1759023
1.1757128
1.1755459
1.1753912
1.1752314
1.1750685
1.1749583
1.1749887
1.1751321
1.1750658
1.2625655
1.288743
1.2930062
1.3006919
1.3035779
1.3044522
1.3033924
1.3010809
1.2978734
1.2940794
1.2899129
1.2855321
1.281049
1.2765436
1.272072
1.2676731
1.2633737
1.2591916
1.2551381
1.2512203
1.2474416
1.2438034
1.240305
1.2369448
1.2337204
1.2306287
1.2276662
1.2248293
1.2221141
1.2195169
1.2170337
1.2146606
1.2123938
1.2102297
1.2081646
1.2061949
1.2043171
1.202528
1.2008241
1.1992025
1.1976599
1.1961935
1.1948003
1.1934775
1.1922223
1.1910323
1.1899047
1.1888371
1.1878272
1.1868725
1.1859708
1.1851199
1.1843178
1.1835623
1.1828514
1.1821834
1.1815563
1.1809685
1.1804181
1.1799037
1.1794235
1.1789761
1.17856
1.178174
1.1778166
1.1774868
1.1771834
1.1769049
1.17665
1.1764181
1.1762097
1.1760256
1.1758638
1.1757155
1.1755703
1.1754342
1.1753488
1.1753681
1.1754587
1.1754008
1.3173761
1.3290942
1.3305339
1.330629
1.327977
1.3240806
1.3192532
1.3139291
1.3083448
1.3026725
1.2970208
1.2914608
1.2860371
1.2807772
1.2756966
1.2708031
1.2660994
1.2615847
1.2572559
1.2531086
1.2491376
1.245337
1.2417008
1.2382228
1.2348972
1.2317179
1.2286791
1.2257754
1.2230013
1.2203517
1.2178218
1.2154067
1.2131021
1.2109035
1.2088068
1.2068082
1.2049037
1.2030897
1.2013628
1.1997195
1.1981566
1.196671
1.1952598
1.1939199
1.1926485
1.1914431
1.1903009
1.1892194
1.1881963
1.187229
1.1863154
1.1854532
1.1846403
1.1838747
1.1831543
1.1824773
1.1818418
1.1812462
1.1806887
1.1801677
1.1796817
1.1792292
1.1788088
1.1784192
1.1780592
1.1777276
1.1774231
1.1771446
1.1768911
1.176662
1.1764574
1.1762771
1.1761189
1.1759771
1.175847
1.1757349
1.1756657
1.1756663
1.1757115
1.1756712
1.3674137
1.3616591
1.3572864
1.3513101
1.3441074
1.336685
1.3292143
1.3218797
1.3147641
1.3079134
1.3013471
1.2950705
1.2890803
1.2833683
1.2779239
1.2727354
1.2677905
1.2630772
1.2585839
1.2542992
1.2502128
1.2463147
1.2425954
1.2390465
1.2356596
1.2324272
1.2293422
1.2263978
1.2235879
1.2209065
1.218348
1.2159073
1.2135795
1.2113598
1.2092438
1.2072273
1.2053064
1.2034771
1.2017359
1.2000792
1.1985038
1.1970063
1.1955837
1.1942331
1.1929516
1.1917365
1.190585
1.1894947
1.1884631
1.1874878
1.1865664
1.1856969
1.184877
1.1841047
1.183378
1.1826949
1.1820538
1.1814529
1.1808905
1.1803649
1.1798747
1.1794185
1.1789948
1.1786025
1.1782402
1.1779069
1.1776014
1.1773225
1.1770695
1.1768418
1.1766391
1.1764606
1.1763043
1.1761674
1.1760494
1.1759555
1.1758954
1.1758743
1.1758849
1.1758649
1.3944582
1.3831371
1.3723274
1.3628707
1.3535422
1.344542
1.3359452
1.3277692
1.3200143
1.3126647
1.3057005
1.2990993
1.2928387
1.286897
1.2812538
1.2758904
1.2707891
1.2659342
1.2613108
1.2569057
1.2527065
1.2487021
1.244882
1.2412369
1.2377579
1.2344369
1.2312666
1.2282398
1.2253501
1.2225914
1.219958
1.2174447
1.2150463
1.2127582
1.2105758
1.2084949
1.2065115
1.2046217
1.2028219
1.2011084
1.1994781
1.1979276
1.1964538
1.1950539
1.1937248
1.1924639
1.1912684
1.1901359
1.1890638
1.1880497
1.1870914
1.1861865
1.1853329
1.1845286
1.1837715
1.1830597
1.1823915
1.181765
1.1811785
1.1806305
1.1801194
1.1796437
1.1792022
1.1787935
1.1784164
1.1780698
1.1777526
1.1774636
1.177202
1.1769674
1.176759
1.1765758
1.1764164
1.1762792
1.1761643
1.1760746
1.1760148
1.1759868
1.1759818
1.1759727
1.164302
1.170449
1.1832359
1.1945399
1.1986352
1.1984778
1.1994615
1.1998402
1.1999864
1.1999126
1.1996067
1.1991693
1.1985978
1.197957
1.1972763
1.1965661
1.1958246
1.1950566
1.1942666
1.1934581
1.1926344
1.1917982
1.1909522
1.1900988
1.18924
1.1883779
1.1875145
1.1866514
1.1857904
1.1849331
1.184081
1.1832358
1.1823988
1.1815714
1.1807551
1.1799511
1.1791608
1.1783855
1.1776265
1.176885
1.1761622
1.1754594
1.1747778
1.1741186
1.1734829
1.172872
1.1722868
1.1717283
1.1711977
1.1706956
1.1702229
1.1697801
1.169368
1.1689867
1.1686366
1.1683176
1.1680295
1.167772
1.1675446
1.1673463
1.1671758
1.1670315
1.1669118
1.1668145
1.1667374
1.166677
1.1666314
1.1665944
1.1665702
1.1665387
1.1665331
1.1664706
1.166501
1.1663382
1.166475
1.1660664
1.1664549
1.1656284
1.1663998
1.1650082
1.1676537
1.1758412
1.1919525
1.1970536
1.1971379
1.1966616
1.1959396
1.1955729
1.1951495
1.1946817
1.1941815
1.193716
1.1932492
1.1927796
1.1922855
1.1917674
1.1912248
1.190659
1.1900707
1.1894606
1.1888302
1.1881807
1.187514
1.1868319
1.1861362
1.185429
1.1847122
1.1839878
1.1832577
1.182524
1.1817886
1.1810533
1.18032
1.1795905
1.1788666
1.17815
1.1774425
1.1767457
1.1760612
1.1753907
1.1747358
1.1740978
1.1734784
1.1728791
1.1723011
1.1717459
1.1712148
1.1707089
1.1702293
1.169777
1.1693529
1.1689577
1.1685919
1.168256
1.1679502
1.1676744
1.1674286
1.1672123
1.1670248
1.1668652
1.1667321
1.1666238
1.1665386
1.1664743
1.1664285
1.1663979
1.1663801
1.1663695
1.1663693
1.1663616
1.1663751
1.1663357
1.1663778
1.1662384
1.1663779
1.1659999
1.1663861
1.1655808
1.1663674
1.1649555
1.158459
1.1741283
1.1861672
1.1908497
1.1906933
1.190175
1.1895687
1.1893669
1.1890625
1.1888657
1.1886035
1.188353
1.1880531
1.1877378
1.1873918
1.1870248
1.186633
1.1862182
1.1857807
1.1853214
1.1848413
1.1843415
1.1838233
1.1832879
1.1827368
1.1821714
1.1815931
1.1810037
1.1804047
1.1797977
1.1791846
1.1785672
1.1779472
1.1773265
1.176707
1.1760904
1.1754787
1.1748736
1.174277
1.1736908
1.1731166
1.1725562
1.1720114
1.1714838
1.170975
1.1704866
1.17002
1.1695766
1.1691576
1.1687641
1.1683971
1.1680573
1.1677455
1.167462
1.1672071
1.1669808
1.1667829
1.166613
1.1664704
1.166354
1.1662624
1.1661939
1.1661466
1.1661183
1.1661066
1.1661081
1.1661204
1.1661381
1.1661635
1.1661808
1.1662149
1.1661991
1.1662547
1.1661379
1.1662821
1.1659333
1.1663167
1.1655333
1.166335
1.1649028
1.1574279
1.1771117
1.1846797
1.1880367
1.186885
1.1865004
1.185771
1.1855179
1.1850692
1.1847681
1.1843903
1.1840794
1.183743
1.1834266
1.1830971
1.1827657
1.1824247
1.1820752
1.1817152
1.1813436
1.18096
1.1805636
1.1801542
1.1797318
1.1792965
1.1788488
1.1783892
1.1779185
1.1774377
1.1769479
1.1764503
1.1759464
1.1754374
1.1749252
1.1744112
1.1738972
1.1733849
1.1728761
1.1723727
1.1718764
1.1713891
1.1709128
1.170449
1.1699998
1.1695668
1.1691517
1.1687561
1.1683813
1.1680288
1.1676997
1.1673952
1.167116
1.1668628
1.1666362
1.1664364
1.1662633
1.1661169
1.1659966
1.1659017
1.1658311
1.1657833
1.1657565
1.1657489
1.1657582
1.1657818
1.1658165
1.1658596
1.1659061
1.1659579
1.1660003
1.1660558
1.1660631
1.1661332
1.1660374
1.166189
1.1658658
1.1662504
1.1654861
1.1663029
1.164854
1.1551547
1.1751598
1.180605
1.1832554
1.1816147
1.1814843
1.1807196
1.1805919
1.180155
1.1799524
1.1796366
1.1794126
1.1791449
1.1789062
1.1786519
1.1784014
1.1781437
1.1778813
1.1776114
1.1773331
1.1770458
1.1767485
1.1764409
1.1761226
1.1757934
1.1754534
1.1751029
1.1747421
1.1743716
1.1739921
1.1736045
1.1732098
1.1728089
1.1724033
1.1719943
1.1715832
1.1711718
1.1707616
1.1703544
1.1699518
1.1695558
1.1691681
1.1687906
1.1684252
1.1680735
1.1677373
1.1674182
1.1671178
1.1668374
1.1665782
1.1663414
1.1661278
1.1659383
1.1657731
1.1656327
1.1655171
1.1654259
1.1653587
1.1653148
1.1652929
1.1652915
1.1653088
1.1653429
1.1653916
1.1654522
1.1655213
1.1655965
1.1656728
1.1657517
1.1658199
1.1658972
1.1659277
1.1660131
1.165938
1.1660979
1.165799
1.1661857
1.1654398
1.1662718
1.1648077
1.1498698
1.1721232
1.1759202
1.1783189
1.1763712
1.176595
1.1758018
1.1758254
1.175408
1.1752981
1.1750251
1.1748747
1.174667
1.1745012
1.1743167
1.1741403
1.1739574
1.1737728
1.1735829
1.1733872
1.1731849
1.1729752
1.1727578
1.172532
1.1722977
1.1720545
1.1718024
1.1715416
1.1712721
1.1709945
1.1707092
1.170417
1.1701185
1.1698148
1.1695069
1.1691961
1.1688838
1.1685712
1.1682601
1.167952
1.1676486
1.1673517
1.167063
1.1667843
1.1665172
1.1662636
1.166025
1.1658028
1.1655985
1.1654133
1.1652482
1.1651043
1.1649821
1.1648822
1.1648047
1.1647497
1.1647169
1.1647057
1.1647154
1.1647445
1.1647917
1.1648549
1.1649325
1.1650219
1.1651206
1.1652252
1.1653331
1.1654399
1.1655464
1.1656406
1.1657402
1.1657937
1.1658948
1.1658403
1.166009
1.1657333
1.166123
1.1653949
1.1662408
1.1647644
1.1445362
1.1694798
1.171074
1.1734227
1.1712515
1.1717653
1.1709276
1.1710979
1.1707036
1.1706995
1.170484
1.1704187
1.1702785
1.1701883
1.1700729
1.1699686
1.1698567
1.1697452
1.1696299
1.1695106
1.1693868
1.1692575
1.1691225
1.1689811
1.1688329
1.1686777
1.1685152
1.1683455
1.1681685
1.1679845
1.1677938
1.1675969
1.1673943
1.1671868
1.1669752
1.1667606
1.1665441
1.1663268
1.1661102
1.1658957
1.1656848
1.1654791
1.1652803
1.1650899
1.1649096
1.164741
1.1645855
1.1644446
1.1643195
1.1642115
1.1641216
1.1640505
1.163999
1.1639674
1.163956
1.1639646
1.1639929
1.1640402
1.1641057
1.1641881
1.1642856