/*--------------------------------*- C++ -*----------------------------------*\
| =========                 |                                                 |
| \\      /  F ield         | OpenFOAM: The Open Source CFD Toolbox           |
|  \\    /   O peration     | Version:  2512                                  |
|   \\  /    A nd           | Website:  www.openfoam.com                      |
|    \\/     M anipulation  |                                                 |
\*---------------------------------------------------------------------------*/
FoamFile
{
    version     2.0;
    format      ascii;
    arch        "LSB;label=32;scalar=64";
    class       volScalarField;
    location    "0.143";
    object      T;
}
// * * * * * * * * * * * * * * * * * * * * * * * * * * * * * * * * * * * * * //

dimensions      [0 0 0 1 0 0 0];

internalField   nonuniform List<scalar> 
16000
(
292.65336
284.85811
289.26661
286.96338
288.62981
287.87617
288.54241
288.34253
288.6453
288.65662
288.82159
288.90856
289.03319
289.1437
289.26234
289.38117
289.5033
289.62808
289.75594
289.88697
290.02129
290.15898
290.30011
290.4447
290.59273
290.74419
290.89898
291.05703
291.21819
291.38231
291.54917
291.71856
291.89022
292.06384
292.23912
292.41571
292.59323
292.7713
292.94951
293.12745
293.30469
293.4808
293.65537
293.82797
293.99821
294.1657
294.3301
294.49107
294.64831
294.80156
294.9506
295.09525
295.23537
295.37084
295.50162
295.62768
295.74903
295.86574
295.97788
296.08558
296.18903
296.28844
296.38406
296.47623
296.56532
296.65174
296.73591
296.81821
296.89902
296.97885
297.05838
297.13845
297.21967
297.30219
297.38596
297.47107
297.56718
297.63818
297.79081
297.82117
292.34043
284.4399
288.9932
286.58052
288.34033
287.52176
288.24654
288.02036
288.3463
288.35924
288.53108
288.62736
288.75769
288.87724
289.00339
289.13086
289.26156
289.39528
289.5323
289.67274
289.81669
289.96422
290.11538
290.27014
290.42849
290.59034
290.7556
290.92413
291.09574
291.27023
291.44735
291.62683
291.80836
291.99159
292.17614
292.36164
292.54766
292.73377
292.91952
293.10446
293.28814
293.47011
293.64994
293.8272
294.0015
294.17247
294.33976
294.50308
294.66215
294.81676
294.96671
295.11188
295.25216
295.38749
295.51788
295.64333
295.76392
295.87974
295.99091
296.09757
296.19996
296.29829
296.39285
296.48397
296.57204
296.65748
296.74072
296.82218
296.90224
296.98139
297.06029
297.13982
297.22068
297.30303
297.38687
297.47339
297.56371
297.65421
297.77245
297.84476
292.01259
284.05944
288.69696
286.25675
288.04371
287.2285
287.95418
287.74646
288.06949
288.09946
288.27348
288.38204
288.51936
288.64894
288.78431
288.9217
289.06251
289.20666
289.35438
289.50576
289.66089
289.8198
289.98249
290.14892
290.31901
290.49265
290.66968
290.84992
291.03313
291.21905
291.40736
291.59773
291.78978
291.9831
292.17727
292.37183
292.56631
292.76022
292.95307
293.14439
293.33368
293.52048
293.70436
293.8849
294.0617
294.23444
294.4028
294.56653
294.7254
294.87925
295.02796
295.17145
295.30968
295.44267
295.57047
295.69316
295.81086
295.92372
296.0319
296.1356
296.23507
296.33056
296.42237
296.51086
296.59641
296.67948
296.76049
296.83988
296.91803
296.9954
297.07266
297.15066
297.23014
297.31134
297.39424
297.47966
297.56882
297.66288
297.77104
297.85451
291.71864
283.71034
288.45315
285.96838
287.79421
286.96305
287.70144
287.50426
287.83043
287.87552
288.0537
288.17501
288.32044
288.46096
288.60654
288.75483
288.90671
289.06222
289.22152
289.38471
289.55181
289.72283
289.89773
290.07644
290.25882
290.44471
290.6339
290.82615
291.02115
291.21856
291.41802
291.61911
291.82138
292.02435
292.22753
292.4304
292.63242
292.83307
293.03183
293.22817
293.42161
293.61167
293.79793
293.97999
294.15749
294.33015
294.4977
294.65994
294.81674
294.96799
295.11363
295.25368
295.38817
295.51717
295.64082
295.75925
295.87265
295.98122
296.08516
296.18472
296.28017
296.37179
296.4599
296.54486
296.62707
296.70699
296.78505
296.8617
296.93732
297.01236
297.08745
297.16344
297.24112
297.32082
297.40247
297.48646
297.5746
297.67048
297.76944
297.86665
291.44871
283.396
288.21728
285.70896
287.59185
286.74069
287.48273
287.30491
287.63003
287.69442
287.87682
288.01253
288.16754
288.32019
288.47738
288.63778
288.80196
288.97002
289.14206
289.31816
289.49833
289.68252
289.87066
290.06262
290.2582
290.45719
290.65929
290.86419
291.07149
291.28078
291.4916
291.70343
291.91576
292.12803
292.33965
292.55006
292.75866
292.96489
293.16818
293.36801
293.56389
293.75537
293.94204
294.12355
294.2996
294.46998
294.63449
294.79302
294.94551
295.09194
295.23237
295.36687
295.49557
295.61863
295.73625
295.84863
295.95602
296.05867
296.15685
296.25082
296.34088
296.42736
296.51057
296.59089
296.66872
296.74451
296.81871
296.89176
296.96405
297.03601
297.10824
297.18154
297.25677
297.33433
297.41402
297.49601
297.58295
297.67785
297.77271
297.87426
291.20867
283.12657
288.01902
285.4941
287.38409
286.56543
287.31338
287.15286
287.47776
287.5617
287.74934
287.90016
288.06603
288.23159
288.4014
288.57484
288.75229
288.93388
289.11969
289.30975
289.50402
289.70241
289.90478
290.11091
290.32055
290.53336
290.74897
290.96696
291.18683
291.40806
291.63009
291.85231
292.0741
292.29482
292.51383
292.73047
292.94414
293.15421
293.36014
293.5614
293.75752
293.9481
294.13278
294.3113
294.48344
294.64907
294.8081
294.96053
295.10639
295.24578
295.37884
295.50576
295.62674
295.74204
295.85191
295.95664
296.05652
296.15187
296.24297
296.33015
296.41371
296.494
296.57134
296.64611
296.71871
296.78959
296.8592
296.92797
296.99629
297.06457
297.13335
297.20343
297.2757
297.35063
297.42788
297.50751
297.59272
297.68569
297.77672
297.882
291.00052
282.90175
287.85444
285.32699
287.2305
286.442
287.18056
287.05402
287.37017
287.48078
287.67467
287.84092
288.0188
288.1981
288.38173
288.56946
288.76158
288.95815
289.1592
289.3647
289.57453
289.78851
290.0064
290.22788
290.45257
290.68004
290.9098
291.14127
291.37386
291.60693
291.83978
292.07172
292.30201
292.52995
292.75482
292.97594
293.19266
293.40437
293.61053
293.81066
294.00435
294.19129
294.3712
294.54394
294.70939
294.86755
295.01846
295.16223
295.29902
295.42904
295.55255
295.66983
295.78117
295.88691
295.98738
296.08291
296.17387
296.26059
296.3434
296.42265
296.49867
296.5718
296.64237
296.71076
296.77736
296.8426
296.90692
296.97076
297.0345
297.09852
297.16332
297.22965
297.29843
297.3702
297.4445
297.52139
297.60436
297.69456
297.78209
297.88882
290.82431
282.72174
287.72339
285.19639
287.10527
286.34341
287.08807
286.97608
287.31946
287.44997
287.65175
287.8345
288.02657
288.22151
288.42109
288.62524
288.83411
289.04772
289.266
289.48881
289.71593
289.94708
290.18189
290.4199
290.66061
290.90343
291.14772
291.39278
291.63786
291.88219
292.12495
292.36534
292.60255
292.8358
293.06433
293.28746
293.50453
293.71498
293.91834
294.11421
294.30229
294.48237
294.65434
294.81817
294.97391
295.1217
295.26172
295.39423
295.51952
295.63791
295.74978
295.85548
295.95542
296.04999
296.13958
296.22459
296.30539
296.38237
296.45588
296.52628
296.5939
296.65908
296.72216
296.78349
296.84346
296.90247
296.96096
297.01935
297.078
297.13728
297.19763
297.25976
297.32461
297.39274
297.46366
297.53751
297.6177
297.70431
297.78826
297.89585
290.67235
282.58282
287.62761
285.10413
287.03923
286.33771
287.06491
286.99618
287.30998
287.46875
287.6827
287.88466
288.09423
288.30759
288.52585
288.749
288.97709
289.21007
289.44776
289.6899
289.93615
290.18607
290.43914
290.69473
290.95218
291.21073
291.46955
291.72778
291.98453
292.23888
292.48992
292.73674
292.97846
293.21429
293.44346
293.66532
293.87928
294.08488
294.28175
294.46964
294.64841
294.81802
294.97855
295.13012
295.27299
295.40743
295.53381
295.65252
295.76397
295.86863
295.96693
296.05935
296.14633
296.22834
296.30582
296.37918
296.44884
296.51518
296.57859
296.6394
296.69795
296.75458
296.80961
296.86337
296.91621
296.96854
297.02075
297.07326
297.12642
297.18057
297.23608
297.29363
297.35415
297.41821
297.48538
297.55592
297.63284
297.71508
297.79529
297.90304
290.54409
282.48675
287.57181
285.07291
287.02293
286.32536
287.0504
287.03257
287.36126
287.54825
287.77778
288.00093
288.23082
288.46521
288.70482
288.94958
289.19944
289.45419
289.71353
289.97702
290.24414
290.51425
290.78665
291.0605
291.33492
291.60895
291.88158
292.15177
292.41849
292.68068
292.93734
293.18752
293.43032
293.66497
293.89077
294.10715
294.31369
294.51008
294.69613
294.87181
295.03719
295.19244
295.33785
295.47376
295.6006
295.71884
295.82898
295.93156
296.02711
296.11618
296.19931
296.27701
296.34981
296.41819
296.48261
296.54351
296.6013
296.65639
296.70913
296.75986
296.80891
296.85659
296.9032
296.94903
296.99444
297.03977
297.08541
297.13175
297.17912
297.22783
297.27823
297.33091
297.38676
297.44637
297.50949
297.57654
297.64975
297.72692
297.80328
297.91067
290.44253
282.44106
287.55938
285.13336
287.05239
286.43578
287.11212
287.16959
287.4776
287.69519
287.94446
288.19153
288.44503
288.70357
288.96758
289.23688
289.51124
289.79028
290.07349
290.36022
290.6497
290.94106
291.23333
291.52544
291.81626
292.10461
292.38928
292.66908
292.94283
293.2094
293.46775
293.71693
293.95612
294.18465
294.40199
294.60776
294.80176
294.98393
295.15435
295.31325
295.46095
295.59789
295.72458
295.84157
295.94947
296.04893
296.14058
296.22507
296.30304
296.37509
296.44183
296.5038
296.56155
296.61558
296.66634
296.71429
296.75981
296.8033
296.84509
296.8855
296.92483
296.96336
297.00137
297.03913
297.07694
297.11512
297.15402
297.19401
297.23542
297.27851
297.32359
297.3712
297.42213
297.47697
297.53581
297.59926
297.66834
297.73986
297.81242
297.91892
290.37409
282.45544
287.59573
285.22653
287.10656
286.57316
287.25248
287.34406
287.66903
287.9186
288.19229
288.46662
288.74738
289.03352
289.32525
289.62219
289.92388
290.22968
290.5388
290.8503
291.16311
291.47605
291.78784
292.09713
292.40254
292.70267
292.99613
293.2816
293.55783
293.82369
294.07819
294.32053
294.55006
294.76633
294.9691
295.1583
295.33404
295.49659
295.64637
295.78388
295.90975
296.02467
296.12936
296.2246
296.31113
296.38974
296.46117
296.52615
296.58536
296.63946
296.68906
296.73473
296.777
296.81636
296.85325
296.88809
296.92125
296.95308
296.9839
297.01399
297.04362
297.07303
297.10246
297.13216
297.16237
297.1934
297.22555
297.25916
297.29452
297.33191
297.3716
297.41404
297.45987
297.50969
297.56409
297.62387
297.68845
297.7537
297.82254
297.92806
290.34487
282.54026
287.6931
285.41
287.23268
286.79919
287.45373
287.608
287.94475
288.22906
288.53204
288.8376
289.14971
289.46736
289.79042
290.11825
290.45004
290.78482
291.1214
291.45847
291.79459
292.12821
292.45772
292.78148
293.09786
293.40527
293.70223
293.98738
294.25953
294.51769
294.76109
294.98921
295.20174
295.39861
295.57999
295.74621
295.89777
296.03534
296.15966
296.27157
296.37196
296.46173
296.54182
296.61313
296.67655
296.73293
296.78307
296.82773
296.86762
296.90339
296.93564
296.96491
296.99171
297.01648
297.03964
297.06156
297.08258
297.10299
297.12307
297.14308
297.16323
297.18374
297.2048
297.22661
297.2494
297.2734
297.29891
297.32622
297.3556
297.38731
297.42161
297.45887
297.49953
297.54419
297.59404
297.65007
297.70991
297.76847
297.83368
297.9378
290.3524
282.70054
287.85008
285.6514
287.4495
287.10006
287.74338
287.95526
288.31561
288.63834
288.97631
289.318
289.66614
290.01957
290.37774
290.73958
291.10383
291.46903
291.83354
292.19559
292.55329
292.90471
293.24791
293.581
293.90216
294.20977
294.50239
294.7788
295.03809
295.27962
295.50306
295.70834
295.89569
296.06554
296.21855
296.35552
296.47739
296.58519
296.67999
296.76291
296.83503
296.89746
296.95123
296.99734
297.03673
297.07028
297.0988
297.12303
297.14366
297.16129
297.17648
297.18973
297.20148
297.21214
297.22206
297.23156
297.24092
297.25039
297.26021
297.27058
297.28168
297.29368
297.30673
297.32099
297.33665
297.3539
297.373
297.3942
297.41775
297.4439
297.47292
297.50507
297.5406
297.5801
297.6253
297.67745
297.73244
297.78431
297.84596
297.94779
290.40337
282.95412
288.07002
285.98591
287.75075
287.49487
288.12924
288.4049
288.79611
289.16225
289.54134
289.92466
290.31387
290.7074
291.10408
291.50229
291.90016
292.29564
292.68655
293.07057
293.44539
293.80872
294.15835
294.49231
294.80881
295.1064
295.38398
295.64079
295.87645
296.09095
296.28459
296.45796
296.6119
296.74743
296.86574
296.96808
297.05578
297.13018
297.1926
297.24433
297.2866
297.3206
297.3474
297.36802
297.38338
297.39434
297.40165
297.406
297.40801
297.40822
297.40712
297.40514
297.40266
297.4
297.39745
297.39528
297.39372
297.39295
297.39317
297.39452
297.39714
297.40116
297.4067
297.41387
297.42281
297.4337
297.44672
297.4621
297.48007
297.50088
297.52479
297.55198
297.58252
297.61701
297.65752
297.70545
297.75557
297.80133
297.85961
297.95739
290.50206
283.32171
288.3383
286.41698
288.12924
287.99354
288.62825
288.97132
289.40391
289.82004
290.24722
290.67812
291.11327
291.55049
291.98785
292.42296
292.85326
293.276
293.68839
294.08762
294.47101
294.83608
295.18069
295.50303
295.80178
296.07606
296.32546
296.55004
296.75024
296.92686
297.08102
297.21403
297.32736
297.42259
297.50134
297.56525
297.61592
297.65486
297.68355
297.70334
297.7155
297.72119
297.72146
297.71727
297.70947
297.69882
297.686
297.67161
297.65617
297.64014
297.62391
297.60783
297.5922
297.57727
297.56328
297.5504
297.53882
297.52867
297.52008
297.51316
297.508
297.5047
297.50332
297.50394
297.50668
297.51166
297.51902
297.52897
297.54169
297.55744
297.57648
297.5989
297.62468
297.65446
297.69033
297.73349
297.77853
297.81924
297.87417
297.96693
290.65214
283.81381
288.67332
286.95938
288.61912
288.61445
289.26117
289.67849
290.16332
290.63697
291.11901
291.60267
292.08723
292.56968
293.04711
293.51624
293.97365
294.41591
294.83967
295.24186
295.61979
295.97129
296.29472
296.58908
296.85396
297.08954
297.2965
297.47594
297.62932
297.75835
297.86491
297.95098
298.01856
298.06964
298.10613
298.12987
298.14256
298.1458
298.14103
298.12958
298.11265
298.09129
298.06646
298.03899
298.00962
297.979
297.94767
297.91613
297.8848
297.85402
297.8241
297.79529
297.76782
297.74187
297.71759
297.6951
297.67453
297.65595
297.63945
297.62509
297.61293
297.60301
297.59538
297.59008
297.58718
297.58677
297.58896
297.5939
297.60178
297.61283
297.62726
297.64513
297.66645
297.69191
297.72334
297.76121
297.80053
297.8373
297.88965
297.97568
290.85828
284.38927
289.10544
287.63638
289.24211
289.38525
290.05848
290.55685
291.10449
291.6426
292.1848
292.72428
293.25872
293.78397
294.29594
294.7903
295.26288
295.7098
296.12768
296.51383
296.86627
297.18388
297.46628
297.71387
297.92766
298.1092
298.26045
298.38363
298.48118
298.55556
298.60926
298.6447
298.6642
298.66992
298.66387
298.64789
298.62364
298.59262
298.55617
298.51547
298.47156
298.42534
298.37762
298.32906
298.28027
298.23174
298.1839
298.13712
298.0917
298.04788
298.00589
297.96588
297.92799
297.89235
297.85902
297.82809
297.7996
297.77361
297.75013
297.72921
297.71085
297.69508
297.68189
297.67132
297.66338
297.65814
297.65568
297.65609
297.65956
297.6663
297.67646
297.69005
297.70718
297.7287
297.75604
297.7885
297.82149
297.85452
297.90549
297.98412
291.13743
285.1171
289.71529
288.48582
290.03585
290.34
291.05615
291.64178
292.26122
292.86917
293.47395
294.06798
294.64695
295.20527
295.73768
296.23921
296.70558
297.13341
297.52034
297.86509
298.16745
298.42814
298.6487
298.8313
298.97861
299.09355
299.17924
299.23883
299.27538
299.29187
299.29105
299.27551
299.24759
299.2094
299.16283
299.10958
299.05111
298.98872
298.92354
298.85654
298.78856
298.72031
298.65241
298.58537
298.51963
298.45553
298.39338
298.33341
298.27583
298.22079
298.16839
298.11874
298.0719
298.02791
297.98681
297.9486
297.91329
297.88089
297.85139
297.82477
297.80103
297.78015
297.76211
297.74691
297.73455
297.72505
297.71845
297.71485
297.71438
297.71722
297.72345
297.73307
297.74632
297.76419
297.78771
297.81513
297.84194
297.8707
297.92063
297.99354
291.52284
286.02295
290.48162
289.54591
291.0411
291.51562
292.29428
292.97383
293.67162
294.35064
295.0137
295.65187
296.25887
296.82816
297.35431
297.83303
298.26151
298.63836
298.96366
299.23869
299.46577
299.64799
299.78895
299.89258
299.96289
300.00386
300.01934
300.01292
299.98793
299.94739
299.89404
299.83029
299.75826
299.67984
299.59663
299.51004
299.42127
299.33135
299.24114
299.15138
299.06269
298.97559
298.89049
298.80775
298.72763
298.65037
298.57614
298.50507
298.43725
298.37275
298.31161
298.25385
298.19946
298.14844
298.10077
298.05641
298.01533
297.97749
297.94286
297.91138
297.88304
297.85778
297.83556
297.81637
297.80017
297.78696
297.77676
297.76962
297.76567
297.76503
297.76771
297.77373
297.78344
297.79789
297.81764
297.84033
297.86189
297.88689
297.93493
298.00313
292.0566
287.17276
291.41683
290.85393
292.30905
292.96222
293.82365
294.60121
295.3756
296.11512
296.81728
297.47237
298.07368
298.61571
299.09513
299.51056
299.86259
300.15343
300.38655
300.56638
300.69787
300.78625
300.83676
300.85446
300.84412
300.81012
300.75644
300.68664
300.60384
300.51078
300.40983
300.30305
300.19218
300.07871
299.96389
299.8488
299.73431
299.62116
299.50995
299.4012
299.29529
299.19255
299.09322
298.99752
298.90557
298.81748
298.73331
298.6531
298.57686
298.50458
298.43623
298.37178
298.31116
298.25433
298.20121
298.15174
298.10585
298.06347
298.02454
297.98899
297.95675
297.92778
297.90201
297.87941
297.85992
297.84352
297.83021
297.82002
297.81303
297.8093
297.80882
297.81162
297.81819
297.82946
297.8455
297.86363
297.88081
297.9032
297.94892
298.01051
292.77702
288.62557
292.63207
292.47809
293.91585
294.74919
295.70231
296.56759
297.39656
298.16279
298.86115
299.48382
300.02717
300.48998
300.87379
301.18227
301.4207
301.59543
301.71335
301.78148
301.80666
301.79536
301.7535
301.6864
301.5988
301.49482
301.37803
301.25151
301.11785
300.97925
300.83758
300.69439
300.55096
300.40835
300.26745
300.12897
299.99349
299.86146
299.73326
299.60915
299.48937
299.37404
299.26329
299.15718
299.05572
298.95893
298.86678
298.77922
298.6962
298.61765
298.54348
298.47361
298.40794
298.34637
298.28882
298.23517
298.18533
298.13921
298.09672
298.05778
298.0223
297.99022
297.96146
297.93597
297.91368
297.89456
297.87859
297.86576
297.85614
297.8497
297.84642
297.84641
297.8502
297.85853
297.87097
297.88483
297.89834
297.91871
297.96135
298.01513
293.68965
290.49572
294.21028
294.50798
295.9461
296.94382
297.96723
298.87904
299.70815
300.43673
301.06302
301.58581
302.00857
302.33729
302.58007
302.74613
302.84514
302.88662
302.87957
302.83223
302.75198
302.64527
302.51766
302.37393
302.21808
302.0535
301.88299
301.70887
301.53308
301.35718
301.18244
301.00992
300.84043
300.67464
300.51308
300.35615
300.20416
300.05732
299.91579
299.77968
299.64904
299.52388
299.40419
299.28992
299.18102
299.0774
298.97897
298.88562
298.79724
298.71372
298.63492
298.56073
298.49102
298.42566
298.36452
298.30749
298.25445
298.20528
298.15988
298.11814
298.07998
298.04531
298.01405
297.98612
297.96147
297.94004
297.92178
297.90671
297.8948
297.88601
297.8803
297.87783
297.87914
297.88473
297.89376
297.90378
297.91415
297.93249
297.97129
298.01741
294.91447
292.90302
296.26328
297.01371
298.43379
299.56862
300.59289
301.46591
302.20561
302.80762
303.28052
303.63368
303.87986
304.03264
304.1058
304.11241
304.06441
303.97237
303.84544
303.69138
303.51672
303.32686
303.12627
302.91858
302.70674
302.49314
302.27971
302.06797
301.85916
301.65423
301.45393
301.25883
301.06938
300.88589
300.70858
300.53761
300.37306
300.21496
300.06331
299.91807
299.77916
299.6465
299.51998
299.39947
299.28485
299.17596
299.07267
298.97483
298.88228
298.79486
298.71243
298.63483
298.56191
298.49353
298.42953
298.36978
298.31414
298.2625
298.21472
298.17069
298.13031
298.09349
298.06013
298.03016
298.0035
297.98009
297.95989
297.94287
297.92898
297.91815
297.91034
297.90575
297.90485
297.90782
297.91364
297.92027
297.92815
297.94479
297.97985
298.01861
296.48536
295.94943
298.8147
300.0123
301.48597
302.54184
303.45065
304.16231
304.70513
305.09032
305.33961
305.47321
305.5114
305.47241
305.37229
305.22468
305.04092
304.8303
304.60036
304.35713
304.10544
303.84908
303.59108
303.33378
303.07902
302.82822
302.58247
302.34261
302.10924
301.88281
301.66363
301.45192
301.24779
301.05128
300.86241
300.68112
300.50733
300.34094
300.18181
300.0298
299.88474
299.74648
299.61484
299.48963
299.37067
299.25778
299.15078
299.04948
298.95369
298.86325
298.77797
298.69768
298.62222
298.55143
298.48513
298.42319
298.36545
298.31178
298.26205
298.21613
298.17392
298.1353
298.10018
298.06847
298.04009
298.01498
297.99309
297.97437
297.95875
297.94615
297.93654
297.93014
297.92725
297.92782
297.93076
297.9346
297.94051
297.95517
297.9851
298.01602
298.45236
299.64482
302.27624
303.53302
304.76114
305.63952
306.29928
306.73214
306.98722
307.09405
307.08486
306.98573
306.81873
306.60157
306.34831
306.06994
305.77498
305.47
305.16002
304.84886
304.53943
304.23391
303.93393
303.64069
303.35506
303.07766
302.80892
302.5491
302.29835
302.05673
301.82422
301.60076
301.38624
301.18052
300.98342
300.79477
300.61436
300.442
300.27745
300.12051
299.97095
299.82856
299.6931
299.56437
299.44214
299.3262
299.21634
299.11235
299.01404
298.92121
298.83367
298.75123
298.67372
298.60096
298.53278
298.46903
298.40955
298.3542
298.30283
298.25533
298.21155
298.1714
298.13477
298.10156
298.0717
298.04511
298.02173
298.00149
297.98433
297.97015
297.95897
297.95094
297.94626
297.94467
297.94521
297.94694
297.95132
297.96372
297.9883
298.01247
301.13798
304.04605
306.01153
307.16635
308.07274
308.58393
308.85779
308.92909
308.85635
308.67759
308.42439
308.11987
307.78142
307.42183
307.05045
306.67413
306.29783
305.92512
305.55857
305.2
304.85066
304.51142
304.18281
303.86517
303.55865
303.26327
302.97899
302.70568
302.44315
302.1912
301.9496
301.71808
301.49639
301.28425
301.08138
300.88752
300.70238
300.5257
300.3572
300.19661
300.04367
299.89814
299.75976
299.62827
299.50346
299.38508
299.27291
299.16673
299.06632
298.97149
298.88203
298.79776
298.71848
298.64401
298.5742
298.50886
298.44784
298.391
298.33817
298.28925
298.24408
298.20256
298.16458
298.13003
298.09883
298.0709
298.04618
298.02457
298.00601
297.99042
297.97781
297.96829
297.9619
297.95836
297.95697
297.95728
297.96065
297.97073
297.98951
298.00748
304.87602
308.71029
309.9402
310.62092
310.96834
311.00002
310.8476
310.56563
310.20293
309.78995
309.3483
308.89248
308.43237
307.97463
307.52375
307.08269
306.6534
306.23705
305.83437
305.4457
305.07114
304.71064
304.364
304.03097
303.71123
303.40444
303.11024
302.82824
302.55808
302.29935
302.05171
301.81477
301.58817
301.37158
301.16464
300.96703
300.77842
300.5985
300.42698
300.26355
300.10794
299.95987
299.81907
299.68528
299.55826
299.43776
299.32356
299.21541
299.11312
299.01646
298.92523
298.83924
298.7583
298.68222
298.61084
298.54399
298.4815
298.42322
298.36901
298.31873
298.27224
298.22943
298.19016
298.15436
298.1219
298.09273
298.06675
298.04388
298.02406
298.00721
297.99333
297.98244
297.9745
297.96925
297.96628
297.9655
297.96789
297.97545
297.98887
298.00236
310.44746
312.86795
313.3028
313.26336
313.03966
312.62851
312.13171
311.58742
311.02381
310.45681
309.89626
309.34799
308.81543
308.30047
307.80402
307.32641
306.86755
306.42714
306.00472
305.59974
305.21161
304.83974
304.4835
304.1423
303.81556
303.50272
303.20324
302.9166
302.64231
302.3799
302.12892
301.88893
301.65954
301.44035
301.23098
301.03108
300.84031
300.65832
300.48481
300.31947
300.16201
300.01214
299.86959
299.73409
299.6054
299.48326
299.36745
299.25772
299.15387
299.05569
298.96296
298.8755
298.79311
298.71562
298.64284
298.57462
298.5108
298.45121
298.39572
298.34418
298.29646
298.25243
298.21198
298.17498
298.14135
298.111
298.08384
298.05979
298.03879
298.02079
298.00574
297.99362
297.98432
297.97765
297.97343
297.97177
297.9733
297.97872
297.98771
297.99806
314.05489
315.04701
315.19823
314.69397
314.07167
313.39627
312.70839
312.02854
311.36634
310.72699
310.11261
309.52392
308.96071
308.42235
307.90795
307.4165
306.94695
306.49827
306.06943
305.65949
305.26753
304.89269
304.53417
304.19122
303.86313
303.54926
303.24897
302.9617
302.68691
302.42408
302.17273
301.93241
301.7027
301.48318
301.27347
301.07321
300.88203
300.69961
300.52562
300.35977
300.20174
300.05126
299.90806
299.77187
299.64244
299.51952
299.40289
299.29231
299.18757
299.08845
298.99477
298.90632
298.82292
298.7444
298.67057
298.60128
298.53637
298.47569
298.41909
298.36643
298.31759
298.27243
298.23083
298.19269
298.15791
298.12639
298.09805
298.07282
298.05066
298.0315
298.01531
298.00205
297.99159
297.9838
297.97858
297.97602
297.9764
297.98005
297.98687
297.9957
310.63455
308.89655
305.63575
302.82158
301.83115
301.84674
301.50533
301.28942
301.11463
300.96361
300.83321
300.70642
300.5933
300.48955
300.38878
300.2884
300.18949
300.0918
299.99503
299.89901
299.80364
299.70886
299.61463
299.52096
299.42786
299.33538
299.24357
299.15247
299.06216
298.97271
298.88419
298.79669
298.7103
298.6251
298.54118
298.45865
298.37761
298.29817
298.22042
298.14448
298.07046
297.99849
297.92867
297.86114
297.79602
297.73343
297.6735
297.61636
297.56214
297.51096
297.46294
297.41819
297.37685
297.339
297.30476
297.2742
297.2474
297.22444
297.20533
297.19013
297.17889
297.17167
297.16849
297.16939
297.17447
297.18384
297.19772
297.21599
297.23919
297.2662
297.29979
297.3351
297.38355
297.42558
297.4959
297.53234
297.63886
297.66103
297.80953
297.83149
306.81674
304.66203
300.61065
299.38976
299.37646
299.49217
299.65186
299.70384
299.74245
299.77601
299.79881
299.79841
299.78216
299.753
299.71642
299.67384
299.62587
299.57302
299.51592
299.45518
299.39129
299.3247
299.25579
299.18493
299.11243
299.0386
298.96371
298.88801
298.81176
298.73517
298.65847
298.58186
298.50552
298.42966
298.35445
298.28006
298.20666
298.13442
298.0635
297.99405
297.92624
297.86021
297.79613
297.73413
297.67439
297.61703
297.56222
297.51008
297.46077
297.41442
297.37115
297.33109
297.29436
297.26107
297.23131
297.20516
297.1827
297.16399
297.14904
297.1379
297.13062
297.12724
297.12776
297.13223
297.14074
297.15339
297.17038
297.19162
297.21755
297.24727
297.2831
297.32104
297.37101
297.41566
297.48636
297.52606
297.6319
297.65645
297.80698
297.82586
307.34192
303.22473
300.14523
298.97051
298.99614
299.11142
299.23579
299.25778
299.29119
299.29054
299.29138
299.28072
299.26887
299.25092
299.22875
299.20145
299.16978
299.13391
299.09418
299.05088
299.00429
298.95468
298.90233
298.8475
298.79047
298.73149
298.67083
298.60874
298.54545
298.48121
298.41625
298.35079
298.28505
298.21925
298.15359
298.08829
298.02353
297.95951
297.89644
297.83448
297.77384
297.71468
297.6572
297.60157
297.54797
297.49656
297.44751
297.40098
297.35713
297.31609
297.27802
297.24304
297.21127
297.18283
297.15781
297.1363
297.11836
297.10406
297.09339
297.0864
297.08314
297.08363
297.08788
297.09591
297.10783
297.12373
297.14379
297.16793
297.19655
297.22885
297.26696
297.30729
297.35898
297.40574
297.47746
297.5195
297.6258
297.65183
297.80434
297.82124
306.25629
301.09874
299.12932
298.2382
298.48371
298.54202
298.66727
298.67762
298.72568
298.73879
298.76036
298.76462
298.76638
298.75989
298.74946
298.73423
298.71507
298.69198
298.66529
298.63528
298.60216
298.56615
298.52747
298.48631
298.44288
298.39738
298.35001
298.30095
298.25042
298.19861
298.14573
298.09198
298.03757
297.9827
297.92758
297.87242
297.81742
297.76279
297.70873
297.65545
297.60316
297.55204
297.5023
297.45414
297.40776
297.36333
297.32104
297.28107
297.24357
297.20872
297.17666
297.14753
297.12146
297.09855
297.07892
297.06264
297.04979
297.04041
297.0345
297.0321
297.03326
297.03798
297.04628
297.05818
297.07377
297.09314
297.11647
297.14369
297.17516
297.21015
297.25066
297.29345
297.34697
297.3958
297.46868
297.51298
297.6197
297.64725
297.80165
297.81679
305.22927
299.98488
298.54743
297.82213
298.17664
298.16201
298.2941
298.27654
298.32408
298.32106
298.33593
298.33244
298.33204
298.32512
298.31669
298.3049
298.29066
298.27376
298.25443
298.23273
298.20874
298.18255
298.15422
298.12385
298.09153
298.05736
298.02146
297.98395
297.94495
297.90463
297.86312
297.8206
297.77723
297.73318
297.68863
297.64379
297.59883
297.55396
297.50937
297.46528
297.42188
297.37939
297.33801
297.29794
297.2594
297.22258
297.18767
297.15485
297.1243
297.09619
297.07068
297.0479
297.028
297.01108
296.99725
296.9866
296.97919
296.97505
296.9742
296.97665
296.98246
296.99163
297.00416
297.02007
297.03946
297.06242
297.0891
297.11946
297.15383
297.19155
297.23451
297.27971
297.33517
297.38592
297.46015
297.50643
297.61391
297.64273
297.79893
297.81274
304.71365
298.89901
297.9058
297.27041
297.72503
297.64637
297.80632
297.77517
297.83834
297.83608
297.86121
297.86339
297.87084
297.8708
297.86989
297.86572
297.85947
297.85087
297.84014
297.82734
297.81256
297.79585
297.77728
297.75691
297.73481
297.71105
297.68572
297.65889
297.63067
297.60115
297.57044
297.53868
297.506
297.47254
297.43845
297.4039
297.36906
297.33411
297.29923
297.26463
297.23051
297.19706
297.16449
297.13302
297.10284
297.07415
297.04715
297.02203
296.99896
296.97812
296.95967
296.94375
296.93049
296.92002
296.91243
296.9078
296.9062
296.90766
296.91219
296.91978
296.9305
296.94435
296.96131
296.98143
297.00477
297.03143
297.06158
297.09518
297.13252
297.17302
297.21847
297.26612
297.32353
297.37621
297.45181
297.5
297.60831
297.63832
297.79632
297.80893
304.23676
297.74169
297.33047
296.7345
297.26818
297.14132
297.33387
297.29113
297.37064
297.36812
297.4016
297.40794
297.42207
297.42818
297.43409
297.43677
297.43763
297.43638
297.43327
297.42835
297.42171
297.41342
297.40353
297.39209
297.37916
297.36479
297.34903
297.33194
297.31358
297.29403
297.27338
297.25171
297.22914
297.20577
297.18174
297.15718
297.13224
297.10709
297.08189
297.05682
297.03208
297.00785
296.98433
296.96171
296.9402
296.91999
296.90127
296.88422
296.86903
296.85585
296.84485
296.83617
296.82995
296.82628
296.82527
296.827
296.83153
296.83887
296.84902
296.862
296.87784
296.89655
296.91811
296.94255
296.96996