/*--------------------------------*- C++ -*----------------------------------*\
| =========                 |                                                 |
| \\      /  F ield         | OpenFOAM: The Open Source CFD Toolbox           |
|  \\    /   O peration     | Version:  2512                                  |
|   \\  /    A nd           | Website:  www.openfoam.com                      |
|    \\/     M anipulation  |                                                 |
\*---------------------------------------------------------------------------*/
FoamFile
{
    version     2.0;
    format      ascii;
    arch        "LSB;label=32;scalar=64";
    class       volVectorField;
    location    "0.143";
    object      U;
}
// * * * * * * * * * * * * * * * * * * * * * * * * * * * * * * * * * * * * * //

dimensions      [0 1 -1 0 0 0 0];

internalField   nonuniform List<vector> 
16000
(
(214.82625 -3.119558e-17 -8.3430402)
(251.98062 0 5.3541947)
(238.34973 0 -7.5462965)
(246.08729 4.9556969e-17 3.7607873)
(241.48669 -4.9008567e-17 -5.9387809)
(243.74636 0 1.734367)
(241.99187 0 -4.321014)
(242.53228 8.3852115e-17 -0.042961742)
(241.72223 -7.9693373e-17 -3.1629591)
(241.62446 0 -1.2796131)
(241.13071 7.2012091e-17 -2.5746045)
(240.80148 -2.0516167e-16 -1.9965634)
(240.37356 1.2986166e-16 -2.4359049)
(239.95886 -1.2353083e-16 -2.3740601)
(239.51449 1.1720943e-16 -2.536284)
(239.05494 -3.477004e-18 -2.60922)
(238.57558 -3.303066e-18 -2.7138181)
(238.07748 -9.746749e-17 -2.8077065)
(237.56018 1.9096135e-16 -2.9034305)
(237.02362 -9.0604286e-17 -2.9970061)
(236.46774 1.7234322e-16 -3.0888196)
(235.8925 -1.6336691e-16 -3.1781716)
(235.29797 0 -3.2645597)
(234.68428 1.520701e-16 -3.3473976)
(234.05164 -4.1150037e-18 -3.4260887)
(233.40039 -2.6540888e-16 -3.5000038)
(232.73096 1.2579398e-16 -3.568505)
(232.0439 0 -3.6309405)
(231.3399 0 -3.6866599)
(230.61976 2.1846306e-16 -3.73502)
(229.88442 -2.0354691e-16 -3.7753973)
(229.13498 0 -3.807197)
(228.37266 0 -3.829864)
(227.59881 0 -3.8428974)
(226.81491 5.1353993e-18 -3.8458606)
(226.02258 1.5584428e-16 -3.8383933)
(225.22354 -1.4266043e-16 -3.820224)
(224.41961 -1.3972676e-16 -3.7911782)
(223.61269 1.2371773e-16 -3.7511884)
(222.80473 0 -3.7003024)
(221.99774 -1.1841064e-16 -3.6386846)
(221.19373 1.1176533e-16 -3.5666213)
(220.39472 -2.1181898e-16 -3.4845177)
(219.60268 1.9984421e-16 -3.392895)
(218.81953 -1.9518022e-16 -3.2923839)
(218.04712 3.573434e-16 -3.1837138)
(217.28718 5.6003446e-18 -3.0677019)
(216.54133 2.9840454e-19 -2.9452376)
(215.81103 -1.5041187e-16 -2.8172666)
(215.09762 1.4225816e-16 -2.684773)
(214.40223 -1.2565749e-16 -2.5487612)
(213.72585 0 -2.4102367)
(213.06927 7.4686275e-18 -2.27019)
(212.43311 0 -2.1295781)
(211.8178 6.6462248e-18 -1.9893106)
(211.2236 2.0694876e-16 -1.8502373)
(210.65056 -3.7825368e-16 -1.713136)
(210.09858 1.0921947e-17 -1.5787018)
(209.5674 1.6808618e-16 -1.4475367)
(209.0565 -1.4878174e-16 -1.3201564)
(208.56519 1.4014435e-16 -1.1969644)
(208.09266 -8.8187491e-18 -1.0782985)
(207.63798 0 -0.96439462)
(207.19995 0 -0.85538863)
(206.7771 -1.1113514e-16 -0.75134368)
(206.36759 1.1181506e-16 -0.65225181)
(205.96927 -9.9080281e-17 -0.55805257)
(205.57975 1.934027e-16 -0.46864453)
(205.19669 -1.8874805e-16 -0.38389566)
(204.8179 8.3676666e-17 -0.30365676)
(204.44121 5.2840815e-18 -0.22777144)
(204.06393 0 -0.15609537)
(203.68267 4.7509749e-18 -0.088532039)
(203.294 -4.5129438e-18 -0.024907852)
(202.89622 0 0.035229089)
(202.48975 -3.3750349e-17 0.090108315)
(202.0593 6.2470109e-17 0.14021511)
(201.69465 -3.1744557e-17 0.22371395)
(201.05288 0 0.11205859)
(200.97834 0 0.59568346)
(216.11783 0 -11.154144)
(253.59627 -3.7087892e-18 3.3094559)
(239.30676 -1.1964523e-16 -10.46919)
(247.52804 1.101021e-16 1.679333)
(242.57639 0 -8.7966385)
(245.0659 1.0140001e-16 -0.42168085)
(243.10882 -1.8741355e-16 -7.0637013)
(243.73647 -1.0221268e-19 -2.3229703)
(242.83603 8.445888e-17 -5.7522088)
(242.73871 0 -3.6778728)
(242.20421 -1.5256801e-16 -5.0506434)
(241.84586 1.4923956e-16 -4.4406118)
(241.38581 1.4194916e-16 -4.8667869)
(240.93653 -2.6131342e-16 -4.8060711)
(240.45744 1.2012995e-16 -4.9486176)
(239.96126 1.1044446e-17 -5.0146316)
(239.44428 1.1549139e-16 -5.1040564)
(238.90724 -1.0285883e-16 -5.1846213)
(238.34984 0 -5.2646872)
(237.77207 0 -5.3415518)
(237.17392 5.6761617e-18 -5.4150944)
(236.55549 -1.7806312e-16 -5.4846057)
(235.91693 3.376411e-16 -5.5494492)
(235.25851 -3.1550082e-16 -5.6089387)
(234.5806 1.4260284e-16 -5.6623724)
(233.88368 0 -5.7090327)
(233.16837 1.2437644e-16 -5.7481919)
(232.43542 -1.3336809e-16 -5.7791265)
(231.68571 0 -5.8011245)
(230.92028 3.5248011e-18 -5.8134968)
(230.14031 -1.3368933e-17 -5.8155887)
(229.34712 0 -5.8067953)
(228.54219 0 -5.7865695)
(227.72712 -1.70587e-16 -5.7544433)
(226.90366 3.387266e-16 -5.7100357)
(226.07365 -1.6265275e-16 -5.6530676)
(225.23905 -1.590598e-16 -5.5833756)
(224.4019 1.4557961e-16 -5.5009187)
(223.56429 -1.1213053e-16 -5.4057896)
(222.72833 -2.8732462e-19 -5.298219)
(221.89618 -2.6876142e-19 -5.1785782)
(221.06994 2.3274266e-16 -5.0473785)
(220.25168 -1.0981103e-16 -4.9052668)
(219.4434 0 -4.7530173)
(218.64699 2.0233882e-16 -4.5915215)
(217.86423 1.1936926e-17 -4.4217733)
(217.09674 -5.1153771e-18 -4.2448518)
(216.34601 -1.6451023e-16 -4.0619027)
(215.61334 0 -3.8741176)
(214.89983 -1.4653495e-16 -3.6827126)
(214.20643 -8.8582467e-18 -3.4889076)
(213.53388 2.6007938e-16 -3.2939038)
(212.88272 -1.3007233e-16 -3.0988664)
(212.25332 0 -2.9049052)
(211.64588 -2.0380749e-17 -2.7130599)
(211.0604 -2.1118736e-16 -2.5242877)
(210.49673 3.6123947e-16 -2.3394519)
(209.95456 -2.1525528e-16 -2.1593127)
(209.43341 0 -1.9845187)
(208.93263 -1.7078344e-16 -1.8156135)
(208.45138 1.7946836e-16 -1.6530122)
(207.98871 2.6683902e-17 -1.4970396)
(207.54358 0 -1.3479208)
(207.11472 -1.4187844e-16 -1.2057606)
(206.70065 7.3207056e-18 -1.0705835)
(206.29952 1.1169955e-16 -0.94233692)
(205.90915 -1.9735146e-17 -0.82090956)
(205.52713 9.2992998e-17 -0.70614368)
(205.15102 -1.0511526e-16 -0.59784384)
(204.77856 5.508124e-18 -0.49579171)
(204.40756 -5.1972963e-18 -0.39975822)
(204.03541 0 -0.30952817)
(203.65872 -4.6373983e-18 -0.22494682)
(203.27388 4.3863449e-18 -0.14580224)
(202.87849 8.3076031e-18 -0.072005797)
(202.47147 9.8439333e-19 -0.0046994841)
(202.05639 0 0.062693925)
(201.64159 3.022559e-17 0.12931269)
(201.11585 -5.7570123e-17 0.084857918)
(200.87685 2.5857053e-17 0.49336839)
(217.27349 0 -14.038557)
(255.05897 -1.2198799e-16 1.0675382)
(240.23449 2.4968542e-16 -13.478192)
(248.76324 -2.2257882e-16 -0.57404156)
(243.55692 1.1013778e-16 -11.732725)
(246.18157 -3.2581414e-18 -2.7712848)
(244.09717 9.9254951e-17 -9.8572505)
(244.74976 -9.3970017e-17 -4.801561)
(243.79225 -5.5804594e-18 -8.4089597)
(243.67139 -5.2981665e-18 -6.24328)
(243.10115 -1.0065912e-17 -7.6278734)
(242.70645 1.3887257e-16 -7.0232956)
(242.21055 -1.4077336e-16 -7.4187564)
(241.7224 1.3816487e-16 -7.3651783)
(241.20384 -1.1869365e-16 -7.4866658)
(240.66654 -1.5556908e-17 -7.5448587)
(240.10718 0 -7.618898)
(239.52649 -1.1915347e-20 -7.6848193)
(238.92428 -2.262792e-16 -7.7479938)
(238.30061 -3.6795975e-19 -7.806395)
(237.65562 1.734377e-16 -7.8595899)
(236.98949 1.7036757e-17 -7.9067881)
(236.30255 -2.1549047e-17 -7.9472356)
(235.59522 0 -7.9801435)
(234.86804 6.6569484e-21 -8.0047138)
(234.1217 -1.6542277e-16 -8.0201416)
(233.35704 1.4778464e-16 -8.0256263)
(232.57504 8.2480277e-18 -8.0203797)
(231.77683 0 -8.0036449)
(230.96373 -7.3995595e-18 -7.9747028)
(230.1372 -2.2728555e-21 -7.9328933)
(229.29886 -1.9919098e-16 -7.8776278)
(228.45048 2.0060819e-16 -7.8084052)
(227.59398 1.1888629e-17 -7.7248321)
(226.73138 -1.7995845e-16 -7.6266317)
(225.86482 1.4851751e-16 -7.5136629)
(224.9965 -1.809725e-16 -7.3859296)
(224.12871 1.5168501e-16 -7.2435911)
(223.26373 -1.43623e-16 -7.0869657)
(222.40384 1.3535788e-16 -6.9165367)
(221.55129 1.6005444e-17 -6.7329489)
(220.70827 0 -6.537002)
(219.87687 1.9964888e-16 -6.3296426)
(219.05903 -2.4165542e-16 -6.1119497)
(218.25658 0 -5.8851174)
(217.47116 1.7935803e-16 -5.6504366)
(216.70421 -1.5738972e-16 -5.40927)
(215.95699 1.6981878e-16 -5.1630302)
(215.23057 -1.79623e-16 -4.9131539)
(214.52577 0 -4.6610785)
(213.84325 1.771252e-16 -4.4082184)
(213.18343 -1.3311565e-16 -4.1559415)
(212.54656 0 -3.9055509)
(211.9327 0 -3.6582679)
(211.34174 1.2472677e-16 -3.4152155)
(210.77343 -2.0830214e-16 -3.1774104)
(210.22733 1.2227772e-16 -2.9457519)
(209.70289 1.8402425e-16 -2.7210168)
(209.19942 1.9851161e-19 -2.5038523)
(208.71609 1.7658089e-19 -2.2947837)
(208.25188 -3.2391601e-16 -2.0942005)
(207.80572 8.9393786e-17 -1.9023771)
(207.37643 0 -1.7194945)
(206.9627 1.4207921e-16 -1.5456018)
(206.56297 -1.6297906e-16 -1.3806602)
(206.17542 1.1139623e-16 -1.2245526)
(205.79786 1.3148014e-17 -1.0771001)
(205.42786 -8.595734e-17 -0.93807714)
(205.06295 1.1543044e-17 -0.8072226)
(204.70081 2.1708012e-17 -0.68425372)
(204.33927 -1.0208487e-16 -0.56886729)
(203.97583 9.601079e-17 -0.46076473)
(203.60716 -7.2340239e-17 -0.35975232)
(203.22942 1.3626669e-16 -0.26568684)
(202.83992 -5.6191692e-17 -0.17848813)
(202.43885 -6.062775e-17 -0.097985041)
(202.02974 5.0092482e-17 -0.019509126)
(201.5994 0 0.04276716)
(201.12727 3.2056762e-18 0.053925274)
(200.81568 -1.2157292e-17 0.38598587)
(218.26345 0 -16.991961)
(256.36665 0 -1.3065672)
(240.97266 0 -16.618279)
(249.79816 1.0636609e-16 -2.9343324)
(244.346 -1.2374399e-16 -14.799088)
(247.12431 -2.2017791e-16 -5.2395109)
(244.89848 2.0958451e-16 -12.76963)
(245.57892 -1.2409605e-17 -7.407899)
(244.55705 5.9107897e-18 -11.176679)
(244.40891 -1.7380692e-16 -8.9405734)
(243.79864 1.70174e-16 -10.316718)
(243.3623 1.0113342e-17 -9.7316546)
(242.82596 -1.5358284e-16 -10.088226)
(242.29389 1.3643388e-16 -10.043283)
(241.73104 -1.3166353e-20 -10.142255)
(241.14777 -8.1835188e-18 -10.190511)
(240.54134 0 -10.247395)
(239.91242 -7.3867163e-18 -10.296082)
(239.26094 -2.1027629e-16 -10.339602)
(238.58708 2.1232103e-16 -10.37639)
(237.89109 1.2602845e-17 -10.405787)
(237.17333 -1.1948637e-17 -10.426919)
(236.43425 2.1532399e-16 -10.438928)
(235.67449 -1.7151514e-16 -10.440929)
(234.89482 1.0171063e-17 -10.432026)
(234.09615 1.9286641e-16 -10.411332)
(233.27961 -1.275792e-16 -10.377973)
(232.44646 0 -10.331109)
(231.59816 1.4741977e-16 -10.269947)
(230.73636 -1.2373908e-16 -10.193764)
(229.86287 2.4938365e-16 -10.10192)
(228.97966 -1.3316969e-17 -9.9938837)
(228.08885 -2.0947499e-16 -9.8692463)
(227.19269 1.7374608e-16 -9.7277413)
(226.29354 -1.8716502e-16 -9.5692583)
(225.39384 -3.162917e-20 -9.393859)
(224.49604 2.0923842e-16 -9.201785)
(223.60265 -3.1577415e-16 -8.9934637)
(222.71612 9.2936402e-17 -8.7695111)
(221.83887 3.5188378e-17 -8.5307273)
(220.97318 -4.9756551e-17 -8.2780915)
(220.12126 0 -8.0127454)
(219.2851 -8.8536835e-17 -7.7359799)
(218.46657 1.3866213e-16 -7.4492115)
(217.66728 -2.0937216e-16 -7.1539597)
(216.88866 1.9672529e-16 -6.8518225)
(216.13188 -2.0865971e-16 -6.5444452)
(215.39789 3.9235399e-16 -6.2334943)
(214.68742 -3.074794e-16 -5.9206301)
(214.00095 3.0833437e-16 -5.6074795)
(213.33875 -1.4472071e-16 -5.2956118)
(212.7009 1.362309e-16 -4.986518)
(212.08729 -9.5767436e-17 -4.6815898)
(211.49762 3.0030963e-17 -4.3821084)
(210.93147 0 -4.0892285)
(210.38826 0 -3.8039744)
(209.8673 0 -3.5272321)
(209.36778 2.3246e-17 -3.2597473)
(208.88879 0 -3.0021228)
(208.42932 -1.6361492e-16 -2.7548265)
(207.98821 1.9153792e-16 -2.5181871)
(207.56423 -1.0780908e-16 -2.2924026)
(207.15612 -1.1674725e-19 -2.0775792)
(206.76249 2.5222859e-16 -1.8736923)
(206.38178 2.9623827e-17 -1.680624)
(206.01215 -1.3834206e-16 -1.4981802)
(205.65146 5.1879734e-17 -1.3261059)
(205.29729 -1.457493e-16 -1.1641017)
(204.94711 -4.5542396e-17 -1.0118392)
(204.5986 -6.4019648e-17 -0.86897069)
(204.2496 -6.0034846e-17 -0.73511371)
(203.89775 5.6260563e-17 -0.60989336)
(203.53976 0 -0.49312433)
(203.17164 0 -0.38470508)
(202.79073 -1.5508018e-17 -0.28418838)
(202.39802 0 -0.1908991)
(201.99379 6.8507737e-18 -0.1041137)
(201.56399 5.1588959e-17 -0.036526657)
(201.12533 -7.2872689e-17 0.013576039)
(200.75909 -1.3329552e-20 0.2761758)
(219.06803 0 -20.142353)
(257.49767 -8.7772634e-18 -3.7534182)
(241.56879 2.6642117e-16 -19.890287)
(250.64028 -2.4839698e-16 -5.4191288)
(244.89785 2.5397887e-16 -17.978041)
(247.8597 -2.3213858e-16 -7.8600691)
(245.49562 -2.2147192e-16 -15.786317)
(246.19342 2.0957993e-16 -10.171236)
(245.10889 0 -14.046516)
(244.92382 0 -11.786811)
(244.27161 1.7967948e-16 -13.118837)
(243.78716 -1.7022336e-16 -12.571636)
(243.20593 -1.0112599e-17 -12.879456)
(242.62503 2.8765362e-17 -12.842319)
(242.01321 -9.1029377e-18 -12.91664)
(241.37935 3.4526856e-17 -12.95121)
(240.72125 0 -12.988044)
(240.03951 0 -13.015844)
(239.33421 -2.3580426e-16 -13.036025)
(238.60562 2.0912428e-16 -13.047241)
(237.85416 0 -13.048639)
(237.08037 0 -13.039226)
(236.28495 -1.9027971e-16 -13.018003)
(235.46878 3.6010185e-16 -12.983965)
(234.63292 -1.7031533e-16 -12.936102)
(233.77864 -2.0176781e-17 -12.873432)
(232.9074 -3.8216161e-17 -12.795012)
(232.02087 -1.4480745e-16 -12.699964)
(231.12091 1.1955944e-16 -12.58749)
(230.20957 0 -12.456899)
(229.28909 -3.0623097e-17 -12.307628)
(228.36185 0 -12.139264)
(227.43038 0 -11.951561)
(226.49731 2.0672297e-16 -11.744463)
(225.56532 -2.1910868e-16 -11.518112)
(224.63715 2.2983874e-17 -11.27286)
(223.71552 -2.1686755e-17 -11.009279)
(222.8031 -4.1003557e-17 -10.728153)
(221.90245 -8.862554e-20 -10.430479)
(221.01603 8.4101914e-20 -10.11745)
(220.14611 -7.9295524e-20 -9.7904441)
(219.29477 0 -9.4509989)
(218.46385 -1.2172107e-16 -9.1007895)
(217.65497 1.1430165e-16 -8.7415954)
(216.86946 0 -8.3752713)
(216.1084 -5.0664521e-17 -8.0037187)
(215.37258 1.9041871e-16 -7.6288468)
(214.66256 -2.2322507e-16 -7.2525468)
(213.97862 -2.1001752e-16 -6.8766604)
(213.32082 1.5745901e-16 -6.5029543)
(212.68902 1.1105544e-16 -6.1330967)
(212.08285 -1.3862367e-16 -5.7686394)
(211.50181 -3.2500021e-17 -5.4110001)
(210.94525 -2.1351319e-16 -5.0614551)
(210.41237 1.1419575e-16 -4.7211281)
(209.9023 -1.0710509e-16 -4.39099)
(209.41406 1.001816e-16 -4.071857)
(208.94661 2.3473089e-16 -3.7643912)
(208.49884 -1.7556006e-16 -3.4691033)
(208.06955 0 -3.1863632)
(207.65744 -3.8418801e-17 -2.9163991)
(207.2612 -7.1915434e-17 -2.6593063)
(206.87946 1.3438009e-16 -2.4150879)
(206.5108 1.2572712e-16 -2.1836257)
(206.15363 -2.3495621e-16 -1.9647066)
(205.80616 8.2288985e-17 -1.7580474)
(205.4663 5.1297072e-17 -1.563307)
(205.13166 9.5902602e-17 -1.380108)
(204.79971 1.3444979e-16 -1.2080541)
(204.46811 2.4266497e-20 -1.046731)
(204.13475 0 -0.89567353)
(203.79739 0 -0.75445146)
(203.45285 -3.4219003e-17 -0.62291522)
(203.09708 9.601057e-17 -0.50087504)
(202.72771 -8.9798524e-17 -0.38742159)
(202.3455 -8.4061781e-17 -0.28246348)
(201.94802 5.2457225e-17 -0.18809535)
(201.52708 0 -0.10995247)
(201.10952 4.6078285e-17 -0.036281124)
(200.70832 2.3490277e-20 0.1679566)
(219.67276 0 -23.462688)
(258.43054 1.8281626e-20 -6.2774095)
(241.96954 9.0652427e-18 -23.259984)
(251.31015 2.8767841e-16 -8.0400358)
(245.28927 3.3348563e-19 -21.257431)
(248.36318 -5.0512317e-16 -10.6277)
(245.84756 -3.2410706e-19 -18.895688)
(246.56891 4.5580392e-16 -13.094209)
(245.41806 -2.0978063e-16 -17.014899)
(245.19231 -1.2443188e-17 -14.78003)
(244.49729 1.1818539e-17 -16.031709)
(243.9598 -1.7946772e-16 -15.535005)
(243.33 1.9120817e-16 -15.78613)
(242.69599 -1.8168328e-16 -15.75298)
(242.03068 3.0605617e-16 -15.800617)
(241.34145 -3.0836689e-16 -15.817339)
(240.62663 1.3743753e-16 -15.831042)
(239.88684 0 -15.834261)
(239.12234 0 -15.827251)
(238.33362 1.4639978e-17 -15.80866)
(237.52135 -2.7761415e-17 -15.777405)
(236.68636 0 -15.732319)
(235.82969 1.993513e-16 -15.672238)
(234.95261 4.7447406e-19 -15.596021)
(234.05659 -3.5677099e-16 -15.502551)
(233.14333 1.6857508e-16 -15.390771)
(232.21477 1.9945144e-17 -15.259709)
(231.27306 0 -15.108492)
(230.32056 -1.7868343e-16 -14.936382)
(229.35983 1.3473482e-16 -14.742798)
(228.39358 -2.2343494e-16 -14.527336)
(227.42467 2.1030089e-16 -14.289803)
(226.45606 -2.2761079e-16 -14.030219)
(225.49075 2.1424259e-16 -13.748848)
(224.53176 7.5950653e-17 -13.446197)
(223.58208 0 -13.123021)
(222.64461 0 -12.780326)
(221.7221 4.2329128e-17 -12.419354)
(220.81716 3.986897e-17 -12.041566)
(219.93213 -3.753629e-17 -11.648623)
(219.06914 3.532528e-17 -11.24236)
(218.23002 6.6653179e-17 -10.824746)
(217.41631 -6.2599155e-17 -10.397862)
(216.62922 3.5295716e-16 -9.9638522)
(215.86967 -2.7609957e-16 -9.5248927)
(215.13827 5.1820151e-17 -9.0831548)
(214.43531 -4.8763665e-17 -8.6407676)
(213.76085 0 -8.199789)
(213.11466 2.1432589e-16 -7.7621756)
(212.49631 -1.6053654e-16 -7.3297619)
(211.90516 0 -6.9042377)
(211.34042 0 -6.4871385)
(210.80116 1.3209977e-16 -6.0798316)
(210.28633 -6.1745433e-17 -5.6835143)
(209.79482 0 -5.2992105)
(209.32545 -1.622352e-16 -4.9277737)
(208.87699 1.0098882e-16 -4.569892)
(208.44817 1.4175299e-16 -4.2260925)
(208.03771 -1.763306e-16 -3.896749)
(207.64427 1.6481883e-16 -3.5820952)
(207.26646 -1.53743e-16 -3.2822257)
(206.90286 6.7406834e-20 -2.9971074)
(206.55207 0 -2.7266193)
(206.21263 6.2493332e-17 -2.4705325)
(205.88299 -2.9137551e-16 -2.2285277)
(205.56141 1.6296038e-16 -2.0002233)
(205.24585 0 -1.7851879)
(204.93401 -1.4169211e-16 -1.5829639)
(204.62339 8.8018355e-17 -1.3930877)
(204.31164 1.2313682e-16 -1.2150738)
(203.99669 3.4025005e-20 -1.0483784)
(203.67645 -7.1270491e-17 -0.89254804)
(203.34784 9.9676176e-17 -0.74745952)
(203.007 -1.5484562e-16 -0.6126883)
(202.65175 8.6608581e-17 -0.48699925)
(202.28185 2.6906181e-17 -0.37161257)
(201.89363 5.0222317e-17 -0.26970172)
(201.48633 0 -0.17671166)
(201.0861 -4.3747225e-17 -0.083875043)
(200.65874 2.0375465e-17 0.062470597)
(220.06704 0 -26.949543)
(259.15991 9.7665671e-18 -8.9088891)
(242.17385 -3.0562193e-16 -26.755902)
(251.79723 2.4908786e-16 -10.80174)
(245.49099 2.5635295e-16 -24.636636)
(248.62417 -4.9954827e-16 -13.548678)
(246.00722 2.2995861e-16 -22.087688)
(246.69631 2.3274431e-16 -16.177355)
(245.501 -2.2063889e-16 -20.06646)
(245.20733 3.927204e-17 -17.906474)
(244.46728 0 -19.043317)
(243.87075 0 -18.606977)
(243.18684 -2.2338157e-17 -18.79838)
(242.4933 -1.6960476e-16 -18.765593)
(241.7676 1.4036182e-16 -18.786272)
(241.01579 1.9042021e-17 -18.78195)
(240.23687 -3.6096624e-17 -18.769771)
(239.43161 3.0796737e-16 -18.744662)
(238.60058 -2.2631003e-16 -18.706076)
(237.74461 2.4564353e-16 -18.652545)
(236.86476 -2.0299085e-16 -18.582774)
(235.96227 2.7523722e-17 -18.495436)
(235.03866 1.5636517e-16 -18.38923)
(234.09568 -1.9666472e-16 -18.262914)
(233.13534 0 -18.115313)
(232.15992 0 -17.945358)
(231.17193 0 -17.752116)
(230.17411 -1.9698142e-16 -17.534815)
(229.16941 1.8555136e-16 -17.292875)
(228.16094 -3.5161703e-17 -17.025937)
(227.15198 0 -16.733887)
(226.14585 -2.818649e-16 -16.416879)
(225.14594 2.3557238e-16 -16.075342)
(224.1556 -5.5723207e-17 -15.709994)
(223.17812 1.5758308e-16 -15.321846)
(222.21663 -4.8966771e-17 -14.912181)
(221.27411 -1.8574153e-16 -14.482553)
(220.35326 2.1912482e-16 -14.034757)
(219.45653 -1.6450403e-16 -13.570799)
(218.58602 7.7601554e-17 -13.092866)
(217.74352 -7.2811776e-17 -12.603281)
(216.93042 1.3688325e-16 -12.104461)
(216.14779 -6.4136403e-17 -11.598878)
(215.39629 -2.4140304e-16 -11.089011)
(214.67626 5.0903544e-16 -10.577306)
(213.98771 -2.1201091e-16 -10.066136)
(213.33034 -1.4940632e-16 -9.557772)
(212.70359 9.2889221e-17 -9.0543504)
(212.10669 8.7383588e-17 -8.5578503)
(211.53866 -1.6346975e-16 -8.0700769)
(210.99835 1.5273649e-16 -7.5926494)
(210.48452 0 -7.1269951)
(209.99583 1.3369056e-16 -6.6743457)
(209.53089 -1.8726174e-16 -6.2357413)
(209.08826 5.835788e-17 -5.8120345)
(208.66651 5.4386504e-17 -5.4038989)
(208.26418 0 -5.0118399)
(207.87986 0 -4.6362031)
(207.5121 0 -4.2771858)
(207.15948 0 -3.9348532)
(206.82056 0 -3.6091404)
(206.49386 -7.1460989e-17 -3.2998663)
(206.17797 0 -3.0067709)
(205.87143 -5.477337e-20 -2.729503)
(205.57275 2.3076364e-16 -2.4676302)
(205.28024 -2.1467366e-16 -2.2206684)
(204.992 -9.9933413e-17 -1.9880941)
(204.70582 -1.8581331e-16 -1.7693722)
(204.41924 2.5901336e-16 -1.5639708)
(204.12994 4.4913288e-20 -1.3713315)
(203.83591 7.4603008e-17 -1.1908455)
(203.53514 0 -1.0220667)
(203.22476 0 -0.86484775)
(202.90126 0 -0.71841356)
(202.56249 -1.1135921e-16 -0.5815089)
(202.20671 0 -0.45704909)
(201.83029 -9.6215577e-17 -0.34743733)
(201.44018 1.341442e-16 -0.23847561)
(201.05592 8.3160036e-17 -0.13427686)
(200.60899 -1.9273082e-17 -0.039114004)
(220.25457 0 -30.612294)
(259.69202 0 -11.648654)
(242.18617 3.2153675e-16 -30.383635)
(252.10404 1.9256389e-17 -13.720874)
(245.50322 -2.6908696e-16 -28.126442)
(248.7313 0 -16.644701)
(245.95029 1.6120615e-17 -25.354968)
(246.69942 -3.0550256e-17 -19.411419)
(245.32103 0 -23.182416)
(244.9671 1.9261811e-16 -21.153155)
(244.17479 -4.1704603e-16 -22.153737)
(243.50808 1.9748247e-16 -21.785747)
(242.75978 2.3441655e-17 -21.919369)
(241.99643 0 -21.882347)
(241.20013 2.1033516e-17 -21.875058)
(240.37579 -3.3930676e-16 -21.845163)
(239.52309 7.4799059e-17 -21.802401)
(238.64304 2.5006024e-16 -21.743124)
(237.73663 2.3748601e-16 -21.666285)
(236.80516 -2.5615642e-16 -21.570293)
(235.85014 0 -21.453681)
(234.8734 -2.8742989e-16 -21.314998)
(233.87703 2.4404189e-16 -21.15285)
(232.86345 -2.057042e-16 -20.965953)
(231.83533 1.9387691e-16 -20.753153)
(230.79563 -1.8374208e-16 -20.513455)
(229.74755 3.4661997e-16 -20.246082)
(228.69455 -1.6357418e-16 -19.950487)
(227.6402 1.5470184e-16 -19.626395)
(226.58826 -2.916643e-16 -19.273827)
(225.5425 1.372727e-16 -18.893125)
(224.50675 1.2964734e-16 -18.484962)
(223.48472 -2.4461625e-16 -18.050342)
(222.48004 5.6783207e-17 -17.5906)
(221.49609 -5.7726578e-19 -17.107395)
(220.53603 2.5449692e-16 -16.602666)
(219.60268 0 -16.078625)
(218.69851 1.9793077e-19 -15.537702)
(217.82558 0 -14.982499)
(216.98552 -7.9441697e-17 -14.415749)
(216.17954 -1.4930001e-16 -13.840263)
(215.40843 7.0104904e-17 -13.258869)
(214.67253 0 -12.674373)
(213.97182 -6.1778589e-17 -12.089509)
(213.3059 2.8915322e-16 -11.506895)
(212.67409 -3.2463504e-16 -10.929)
(212.07539 -3.0418211e-16 -10.358119)
(211.50861 2.840122e-16 -9.7963478)
(210.97235 -1.7724544e-16 -9.2455695)
(210.46511 0 -8.7074481)
(209.98525 0 -8.1834254)
(209.53112 7.2344183e-17 -7.6747235)
(209.101 6.751518e-17 -7.1823521)
(208.69319 1.2582534e-16 -6.7071178)
(208.30601 -5.8675486e-17 -6.2496361)
(207.93782 -1.0929965e-16 -5.8103459)
(207.58703 -2.0382428e-16 -5.3895237)
(207.25208 -9.5089674e-17 -4.9872967)
(206.93147 1.7654596e-16 -4.6036562)
(206.62373 0 -4.2384767)
(206.32739 -7.6471129e-17 -3.8915167)
(206.041 -1.4214558e-16 -3.5624355)
(205.76316 1.3207072e-16 -3.2508282)
(205.49246 6.1258941e-17 -2.9562158)
(205.22746 5.6976593e-17 -2.6780521)
(204.9666 0 -2.4157512)
(204.70812 1.9643215e-16 -2.1687015)
(204.4499 1.8227575e-16 -1.9362942)
(204.18961 -2.5364665e-16 -1.7179299)
(203.92495 7.8447949e-17 -1.5129781)
(203.65395 -7.271664e-17 -1.3207902)
(203.37468 -4.4437142e-20 -1.1409469)
(203.08454 2.4994029e-16 -0.97319214)
(202.78053 -2.3164858e-16 -0.81635013)
(202.46027 5.3631506e-17 -0.66953517)
(202.12028 1.4918649e-16 -0.53736363)
(201.7582 -4.608609e-17 -0.41966215)
(201.38834 -4.2691671e-17 -0.29400833)
(201.01941 0 -0.18411947)
(200.55751 3.6570564e-17 -0.13598815)
(220.24255 3.8890941e-16 -34.460149)
(260.02836 5.4141681e-19 -14.504037)
(241.97733 -3.583816e-16 -34.157218)
(252.22112 0 -16.799944)
(245.24369 0 -31.687701)
(248.46017 -2.671657e-16 -19.909761)
(245.59228 2.7048214e-16 -28.679584)
(246.15923 6.4130889e-17 -22.81015)
(244.88826 -2.434813e-16 -26.403838)
(244.44265 2.3029457e-16 -24.5487)
(243.58779 -2.4615478e-16 -25.390585)
(242.83826 2.0689702e-16 -25.086109)
(242.01365 -4.9085441e-17 -25.160949)
(241.16893 -4.6550366e-17 -25.109846)
(240.29061 -1.7639251e-16 -25.069392)
(239.38272 1.6660674e-16 -25.006059)
(238.44562 -3.5580558e-16 -24.924688)
(237.48073 5.9809394e-16 -24.822318)
(236.48958 -2.8259206e-16 -24.697495)
(235.47406 -2.6814244e-16 -24.548472)
(234.43636 2.5285814e-16 -24.373624)
(233.37903 -3.0118395e-17 -24.171411)
(232.30494 -2.2667996e-16 -23.94041)
(231.21731 2.1353083e-16 -23.67939)
(230.11963 2.5296348e-16 -23.387325)
(229.0157 -1.4263019e-16 -23.06345)
(227.90954 0 -22.707302)
(226.80532 2.5509672e-16 -22.318747)
(225.70735 -3.2040994e-16 -21.898018)
(224.61996 1.1273092e-16 -21.445726)
(223.54741 -2.8504748e-16 -20.962875)
(222.49387 2.0083033e-16 -20.450859)
(221.46329 -6.3285784e-17 -19.91145)
(220.45932 2.3781539e-16 -19.346769)
(219.48527 -2.230753e-16 -18.759264)
(218.54401 -2.1025136e-16 -18.151647)
(217.63796 1.9706445e-16 -17.52686)
(216.76904 -4.6218604e-17 -16.888008)
(215.93865 0 -16.238295)
(215.14768 8.1798793e-17 -15.580966)
(214.39652 -7.6342065e-17 -14.919246)
(213.68508 0 -14.256282)
(213.01285 1.3443728e-16 -13.595095)
(212.37896 -6.289156e-17 -12.938532)
(211.78217 -1.763346e-16 -12.289239)
(211.22102 5.50055e-16 -11.649629)
(210.69379 -2.0595747e-16 -11.021872)
(210.19865 9.6057032e-17 -10.407879)
(209.73363 -2.693564e-16 -9.8093051)
(209.29671 -1.8153214e-19 -9.2275518)
(208.88586 1.5618128e-16 -8.6637763)
(208.49903 -1.4570049e-16 -8.118903)
(208.13425 -6.7806433e-17 -7.5936403)
(207.78958 -6.3162079e-17 -7.0884963)
(207.46318 -1.1794012e-16 -6.603797)
(207.15328 2.190296e-16 -6.1397047)
(206.8582 0 -5.6962354)
(206.57636 9.4654623e-17 -5.273274)
(206.30623 -3.5222037e-16 -4.8705902)
(206.04636 2.4514139e-16 -4.4878572)
(205.79533 7.5866226e-17 -4.1246502)
(205.55173 1.4094174e-16 -3.7804682)
(205.31422 1.3095686e-16 -3.4547629)
(205.08148 -1.2117346e-16 -3.1469296)
(204.85216 -1.1229144e-16 -2.8563138)
(204.62484 -3.1237429e-16 -2.5822338)
(204.3979 -4.0450261e-20 -2.3239985)
(204.16939 -8.9275026e-17 -2.0809312)
(203.93711 0 -1.8523659)
(203.69882 -2.2951216e-16 -1.6376088)
(203.45255 7.0773736e-17 -1.4360033)
(203.19642 0 -1.2471562)
(202.92822 1.210902e-16 -1.0705991)
(202.64556 0 -0.90479945)
(202.34551 1.0345404e-16 -0.74964764)
(202.02277 -1.4336939e-16 -0.61108359)
(201.67744 1.3249218e-16 -0.4848151)
(201.33011 -8.1599106e-17 -0.34267507)
(200.97601 7.5364841e-17 -0.23147135)
(200.50411 0 -0.22645215)
(220.01421 -4.0856905e-16 -38.499857)
(260.15337 3.6170102e-16 -17.491777)
(241.51208 -3.3248023e-16 -38.102262)
(252.06339 3.3003083e-16 -20.051073)
(244.69661 3.1662356e-16 -35.313281)
(247.97353 -1.7976668e-17 -23.367001)
(245.00475 -2.834434e-16 -32.092496)
(245.50462 -2.6899951e-16 -26.401211)
(244.14085 2.8639363e-16 -29.743203)
(243.59014 0 -28.089225)
(242.66234 2.8576756e-17 -28.757351)
(241.81756 0 -28.504824)
(240.90404 -1.2854485e-16 -28.520601)
(239.9657 2.4271193e-16 -28.443995)
(238.99314 0 -28.362767)
(237.98994 0 -28.25586)
(236.95725 0 -28.125045)
(235.89711 3.9095041e-17 -27.967619)
(234.81184 0 -27.781813)
(233.70413 -2.4450495e-16 -27.565755)
(232.57709 3.2943451e-16 -27.317729)
(231.4342 1.2465472e-16 -27.036207)
(230.27933 1.7675517e-16 -26.719869)
(229.11668 -2.7764017e-16 -26.367695)
(227.95074 -5.2316875e-17 -25.97899)
(226.78626 -2.4760852e-16 -25.553435)
(225.62812 1.8635747e-16 -25.091128)
(224.48127 -2.2011492e-16 -24.592611)
(223.35065 8.2347674e-17 -24.058881)
(222.2411 7.7859686e-17 -23.4914)
(221.1572 0 -22.89208)
(220.10324 2.7702234e-16 -22.263259)
(219.08311 -2.6019031e-16 -21.607665)
(218.10019 0 -20.928364)
(217.15734 -2.3002732e-16 -20.228701)
(216.25679 2.1545755e-16 -19.512227)
(215.40018 -1.0154397e-16 -18.782626)
(214.58854 1.9010782e-16 -18.043643)
(213.82227 -2.6712761e-16 -17.299001)
(213.10122 1.2761395e-19 -16.552337)
(212.42472 -1.5608166e-16 -15.80714)
(211.79163 -7.3044734e-17 -15.066698)
(211.20045 -1.3710034e-16 -14.334053)
(210.64934 2.555926e-16 -13.611979)
(210.13622 -1.192723e-16 -12.902953)
(209.65882 0 -12.209151)
(209.21479 -3.8353322e-19 -11.532446)
(208.80167 9.7036542e-17 -10.874417)
(208.41702 0 -10.236356)
(208.05841 8.4405352e-17 -9.6192879)
(207.72349 7.8922503e-17 -9.0239913)
(207.40997 -7.3283456e-17 -8.4510169)
(207.1157 2.7284034e-16 -7.9007108)
(206.83861 -2.5364822e-16 -7.3732373)
(206.57679 -1.179698e-16 -6.8685994)
(206.32844 -1.0959508e-16 -6.3866603)
(206.09188 1.0176513e-16 -5.9271611)
(205.86556 1.887759e-16 -5.489738)
(205.64802 -3.5017841e-16 -5.0739371)
(205.43787 4.0583972e-16 -4.6792334)
(205.23378 -1.5037931e-16 -4.3050238)
(205.03444 1.393926e-16 -3.9506551)
(204.83862 -1.2903664e-16 -3.6154467)
(204.64511 2.3898244e-16 -3.2986767)
(204.45267 -3.317612e-16 -2.9995935)
(204.26003 2.0451784e-16 -2.7174317)
(204.06575 -8.0123597e-20 -2.451432)
(203.86808 8.7421917e-17 -2.2008573)
(203.66496 0 -1.964977)
(203.45426 0 -1.7430516)
(203.23397 0 -1.5344507)
(203.00223 -1.2705839e-16 -1.3387766)
(202.75731 1.4691532e-20 -1.1552534)
(202.49746 0 -0.98214463)
(202.2189 0 -0.82045634)
(201.91477 9.1901231e-17 -0.67671816)
(201.58855 -1.6935841e-16 -0.5414472)
(201.26512 0 -0.38398159)
(200.92472 0 -0.27451818)
(200.44854 -1.3192941e-16 -0.30482154)
(219.53472 2.7581362e-17 -42.739553)
(260.02683 -7.8315648e-16 -20.630154)
(240.76208 3.4783467e-16 -42.185953)
(251.37146 -2.1694287e-17 -23.485304)
(243.83947 3.7318501e-16 -39.060771)
(247.14437 -3.5163078e-16 -27.048214)
(244.08621 0 -35.618055)
(244.45756 -3.168835e-16 -30.180541)
(243.04298 2.32995e-16 -33.195691)
(242.36698 2.2129945e-16 -31.768592)
(241.3527 -2.3888656e-16 -32.257139)
(240.39835 0 -32.037953)
(239.38127 1.9658557e-19 -31.992634)
(238.33544 0 -31.876787)
(237.25513 3.8483744e-16 -31.743519)
(236.14392 -7.26996e-16 -31.579466)
(235.00398 3.4321948e-16 -31.384534)
(233.83824 -4.0542274e-17 -31.156079)
(232.65007 -3.8530411e-17 -30.892122)
(231.44329 3.6626169e-17 -30.590748)
(230.22218 -6.8376682e-17 -30.250306)
(228.99144 -3.239419e-16 -29.869448)
(227.75615 3.048819e-16 -29.447197)
(226.52168 5.7472457e-17 -28.983014)
(225.29364 -2.7239852e-16 -28.476826)
(224.07776 -7.0289755e-19 -27.929091)
(222.87978 2.8930622e-16 -27.340796)
(221.70534 -1.8158675e-16 -26.713487)
(220.55983 -6.2489821e-19 -26.049249)
(219.44831 0 -25.350685)
(218.37538 0 -24.620874)