/*--------------------------------*- C++ -*----------------------------------*\
| =========                 |                                                 |
| \\      /  F ield         | OpenFOAM: The Open Source CFD Toolbox           |
|  \\    /   O peration     | Version:  2512                                  |
|   \\  /    A nd           | Website:  www.openfoam.com                      |
|    \\/     M anipulation  |                                                 |
\*---------------------------------------------------------------------------*/
FoamFile
{
    version     2.0;
    format      ascii;
    arch        "LSB;label=32;scalar=64";
    class       volScalarField;
    location    "0.148";
    object      alphat;
}
// * * * * * * * * * * * * * * * * * * * * * * * * * * * * * * * * * * * * * //

dimensions      [1 -1 -1 0 0 0 0];

internalField   nonuniform List<scalar> 
16000
(
6.023897e-07
1.2045748e-05
2.1651897e-05
2.5167178e-05
2.0065499e-05
2.7287309e-05
1.9370807e-05
2.6671596e-05
2.0735591e-05
2.8833497e-05
2.4128861e-05
2.8483391e-05
2.5874801e-05
2.6578144e-05
2.5649394e-05
2.5497997e-05
2.5223496e-05
2.5149282e-05
2.5162863e-05
2.5286589e-05
2.5512293e-05
2.5838717e-05
2.6263182e-05
2.6785824e-05
2.7408931e-05
2.8139117e-05
2.8985218e-05
2.996138e-05
3.1084867e-05
3.2374324e-05
3.3850239e-05
3.5539838e-05
3.7478279e-05
3.9708907e-05
4.2285109e-05
4.5270644e-05
4.8741552e-05
5.2788589e-05
5.7524177e-05
6.3087747e-05
6.9643139e-05
7.7383439e-05
8.6552173e-05
9.7447845e-05
0.00011042604
0.00012591351
0.00014443968
0.00016665
0.00019333087
0.0002254411
0.00026415463
0.00031091218
0.00036747605
0.00043600677
0.00051915335
0.00062017616
0.00074310027
0.00089291462
0.0010758416
0.0011786558
0.0011794832
0.0011802061
0.0011808332
0.0011813221
0.0011816687
0.001181862
0.0011818952
0.0011817624
0.0011814524
0.0011809447
0.0011802042
0.0011791686
0.0011777921
0.0011763088
0.0011750251
0.0011738718
0.0011728212
0.0011726395
0.0011713736
0.0011711601
5.404996e-07
1.1386339e-05
2.1038222e-05
2.2687896e-05
1.808773e-05
2.4434258e-05
1.7182145e-05
2.3312262e-05
1.8309994e-05
2.5411035e-05
2.1829777e-05
2.564311e-05
2.3640162e-05
2.4055008e-05
2.3331647e-05
2.312565e-05
2.2899232e-05
2.2822109e-05
2.2839053e-05
2.2953807e-05
2.316394e-05
2.3467784e-05
2.3863272e-05
2.4350654e-05
2.4931658e-05
2.5612466e-05
2.6400737e-05
2.730922e-05
2.8354241e-05
2.9553981e-05
3.0927518e-05
3.2499747e-05
3.4303221e-05
3.6378091e-05
3.8774318e-05
4.1551862e-05
4.4782708e-05
4.8552163e-05
5.2964971e-05
5.815315e-05
6.4274166e-05
7.1509883e-05
8.0089717e-05
9.0298344e-05
0.00010247738
0.00011703262
0.00013446921
0.00015540521
0.00018059535
0.00021096052
0.00024762875
0.00029198814
0.00034573917
0.00041097078
0.00049024701
0.00058672738
0.00070431775
0.00084785616
0.0010233603
0.0011781688
0.0011789953
0.0011796686
0.0011802561
0.001180709
0.001181023
0.0011811863
0.0011811914
0.0011810323
0.0011806984
0.0011801696
0.0011794146
0.0011783778
0.0011770161
0.0011756039
0.0011743839
0.0011732578
0.0011723099
0.0011718862
0.0011711913
0.0011711702
4.5893854e-07
1.0882517e-05
1.9888803e-05
2.0793184e-05
1.6198405e-05
2.1516021e-05
1.5285363e-05
2.0240116e-05
1.6448556e-05
2.2261679e-05
1.988371e-05
2.2801049e-05
2.1391603e-05
2.1516787e-05
2.0962515e-05
2.0735309e-05
2.0547512e-05
2.0478533e-05
2.0500908e-05
2.0611327e-05
2.0808961e-05
2.1092558e-05
2.1460362e-05
2.1912951e-05
2.2451678e-05
2.3082523e-05
2.381237e-05
2.4652801e-05
2.5619059e-05
2.672888e-05
2.800041e-05
2.945671e-05
3.1128195e-05
3.3052279e-05
3.5275903e-05
3.7855562e-05
4.0859678e-05
4.4369319e-05
4.8482832e-05
5.3324892e-05
5.9047805e-05
6.5824879e-05
7.3873552e-05
8.3465728e-05
9.4932042e-05
0.00010866147
0.00012513903
0.00014496005
0.00016885316
0.00019770884
0.00023261748
0.00027492423
0.00032627874
0.00038871139
0.00046471679
0.00055737122
0.00067048183
0.00080876957
0.00097809869
0.0011778363
0.0011786512
0.0011792598
0.0011797891
0.0011801884
0.001180453
0.0011805707
0.0011805329
0.0011803337
0.0011799629
0.0011794003
0.0011786168
0.0011775651
0.0011762058
0.0011748722
0.0011737197
0.0011726561
0.001171759
0.0011712745
0.0011708626
0.0011710406
4.1110293e-07
1.050756e-05
1.8877768e-05
1.9905499e-05
1.4586512e-05
1.8996522e-05
1.3612946e-05
1.7671623e-05
1.4795715e-05
1.9594544e-05
1.8138189e-05
2.0293861e-05
1.9327044e-05
1.9242354e-05
1.8815421e-05
1.8589614e-05
1.8435547e-05
1.8379534e-05
1.8409406e-05
1.8518381e-05
1.8706435e-05
1.8972892e-05
1.9316379e-05
1.9737971e-05
2.0238811e-05
2.0824843e-05
2.1502454e-05
2.2282311e-05
2.3178631e-05
2.420879e-05
2.5390326e-05
2.6744752e-05
2.8300762e-05
3.0093429e-05
3.2167164e-05
3.45755e-05
3.7383813e-05
4.066989e-05
4.4527046e-05
4.9073181e-05
5.445672e-05
6.0844579e-05
6.844469e-05
7.7517734e-05
8.8386576e-05
0.00010142742
0.00011710952
0.00013601077
0.00015883996
0.00018646553
0.00021994964
0.00026060638
0.00031004858
0.00037026544
0.00044370358
0.0005333823
0.00064304125
0.00077732416
0.00094200201
0.0011442422
0.0011785196
0.001179047
0.0011795
0.001179829
0.0011800282
0.0011800854
0.0011799911
0.0011797387
0.0011793187
0.0011787109
0.0011778873
0.0011768114
0.0011754437
0.0011741833
0.0011730963
0.0011720956
0.0011712264
0.0011706975
0.0011704957
0.0011705381
3.7140799e-07
1.0236922e-05
1.8031226e-05
1.9961612e-05
1.4417105e-05
1.6798245e-05
1.2151853e-05
1.5473128e-05
1.3380227e-05
1.7307447e-05
1.6596436e-05
1.8047197e-05
1.7411787e-05
1.7184956e-05
1.6851548e-05
1.6641145e-05
1.6513752e-05
1.6470051e-05
1.6505005e-05
1.661107e-05
1.6788584e-05
1.7037616e-05
1.7357219e-05
1.7749001e-05
1.8214054e-05
1.8758323e-05
1.9387834e-05
2.0112521e-05
2.0945583e-05
2.1903987e-05
2.300488e-05
2.4268498e-05
2.5722119e-05
2.7398818e-05
2.9340848e-05
3.1599194e-05
3.4236546e-05
3.732808e-05
4.0963404e-05
4.5254042e-05
5.0345235e-05
5.6399217e-05
6.3616624e-05
7.2247716e-05
8.2609647e-05
9.5068858e-05
0.00011008182
0.00012821241
0.00015015324
0.00017675602
0.00020906017
0.00024835555
0.00029622571
0.00035462767
0.00042597096
0.00051323066
0.00062009409
0.00075114483
0.00091208297
0.0011099814
0.0011785614
0.0011789938
0.0011793546
0.0011795979
0.0011797176
0.001179701
0.0011795378
0.0011792205
0.0011787405
0.0011780775
0.0011772028
0.0011760939
0.0011747243
0.0011735333
0.0011725113
0.0011715726
0.0011707234
0.001170186
0.0011701099
0.0011698635
3.2052195e-07
1.005397e-05
1.7352826e-05
1.964373e-05
1.4186908e-05
1.4889599e-05
1.154652e-05
1.3659083e-05
1.2622109e-05
1.543838e-05
1.5256395e-05
1.6081924e-05
1.5666164e-05
1.5354587e-05
1.5079444e-05
1.4886105e-05
1.4775793e-05
1.4739862e-05
1.4776204e-05
1.4877451e-05
1.5043926e-05
1.5276292e-05
1.5573875e-05
1.5938553e-05
1.6371609e-05
1.687887e-05
1.7466089e-05
1.8142647e-05
1.8920767e-05
1.9816988e-05
2.0848269e-05
2.2033831e-05
2.3399859e-05
2.4977794e-05
2.6808161e-05
2.8939878e-05
3.143342e-05
3.4361958e-05
3.7812826e-05
4.1892131e-05
4.6742294e-05
5.2522642e-05
5.9429292e-05
6.7703181e-05
7.7657991e-05
8.9653918e-05
0.00010413816
0.00012166485
0.00014291489
0.00016872989
0.00020013345
0.0002384
0.000285094
0.00034215221
0.00041196217
0.00049747255
0.00060233943
0.00073111099
0.00088944958
0.0010843795
0.0011787709
0.0011790953
0.0011793492
0.0011794933
0.0011795204
0.0011794181
0.001179175
0.0011787824
0.0011782322
0.0011775055
0.0011765705
0.001175418
0.0011740609
0.0011729356
0.0011719767
0.0011710979
0.0011702707
0.0011697164
0.00116971
0.0011693127
2.9038813e-07
9.9449393e-06
1.681957e-05
1.8521246e-05
1.4005194e-05
1.314654e-05
1.1528705e-05
1.2570638e-05
1.2068492e-05
1.3719932e-05
1.4040401e-05
1.4342402e-05
1.4040588e-05
1.3693376e-05
1.3452526e-05
1.3277695e-05
1.3181206e-05
1.3152816e-05
1.319111e-05
1.3289296e-05
1.3447281e-05
1.3666257e-05
1.3945814e-05
1.4203448e-05
1.459938e-05
1.5066422e-05
1.5609648e-05
1.6237685e-05
1.6961589e-05
1.779711e-05
1.8760994e-05
1.9871489e-05
2.1153789e-05
2.2637797e-05
2.4362462e-05
2.6374844e-05
2.8733367e-05
3.1509254e-05
3.4788441e-05
3.8964538e-05
4.362277e-05
4.9186741e-05
5.5850843e-05
6.3848108e-05
7.349003e-05
8.5133972e-05
9.9221227e-05
0.00011630014
0.0001370436
0.00016228927
0.00019305114
0.00023059606
0.0002764785
0.00033262549
0.00040141561
0.00048578694
0.00058938266
0.00071673675
0.00087350018
0.0010666866
0.001179126
0.001179331
0.001179466
0.0011794991
0.0011794228
0.0011792247
0.0011788923
0.0011784158
0.0011777869
0.0011769894
0.0011759884
0.0011747793
0.0011734621
0.0011723988
0.0011715002
0.0011706799
0.0011698832
0.0011693074
0.0011692674
0.0011688386
2.6871132e-07
9.8810751e-06
1.6358471e-05
1.6794366e-05
1.2543952e-05
1.1447987e-05
9.7175532e-06
1.1164573e-05
1.0213013e-05
1.2360754e-05
1.2810747e-05
1.2741922e-05
1.2489105e-05
1.2153052e-05
1.1941601e-05
1.1790859e-05
1.1711184e-05
1.169371e-05
1.1665911e-05
1.1747093e-05
1.1887699e-05
1.2087996e-05
1.2346282e-05
1.2662383e-05
1.3041194e-05
1.3486415e-05
1.4003291e-05
1.4600406e-05
1.5288251e-05
1.6082142e-05
1.6999096e-05
1.8056877e-05
1.9280263e-05
2.0698228e-05
2.2348855e-05
2.4278083e-05
2.6543167e-05
2.9214199e-05
3.2376743e-05
3.6135042e-05
4.061621e-05
4.598122e-05
5.2424842e-05
6.0681278e-05
7.0105403e-05
8.150974e-05
9.5333469e-05
0.00011212298
0.00013254705
0.00015744602
0.00018783074
0.00022496891
0.00027041488
0.0003260973
0.00039439984
0.00047826713
0.0005813497
0.0007081908
0.00086445767
0.0010571921
0.0011796061
0.0011796823
0.0011796886
0.0011796015
0.001179413
0.0011791107
0.0011786817
0.0011781145
0.0011774
0.0011765254
0.0011754576
0.0011741799
0.0011729357
0.0011719315
0.0011710894
0.001170326
0.0011695674
0.0011689733
0.0011688638
0.0011684221
2.3826356e-07
9.8405482e-06
1.5864836e-05
1.4706367e-05
1.0276055e-05
1.0198627e-05
8.0386046e-06
9.5888953e-06
9.7601242e-06
1.1076981e-05
1.1574627e-05
1.1262365e-05
1.1035194e-05
1.0735393e-05
1.0552613e-05
1.0354628e-05
1.0265758e-05
1.024415e-05
1.0282453e-05
1.0377346e-05
1.0523699e-05
1.0725166e-05
1.0979176e-05
1.1286526e-05
1.1652009e-05
1.2080214e-05
1.2576499e-05
1.3149521e-05
1.3809412e-05
1.457105e-05
1.5451847e-05
1.6469357e-05
1.7648263e-05
1.9016926e-05
2.0612938e-05
2.2481607e-05
2.4679536e-05
2.727627e-05
3.0356854e-05
3.4024825e-05
3.8407934e-05
4.366514e-05
4.9994694e-05
5.7626681e-05
6.6855945e-05
7.8049317e-05
9.245713e-05
0.00010911343
0.00012940309
0.00015417536
0.00018444493
0.00022148873
0.00026687103
0.00032253372
0.00039087973
0.00047487786
0.00057820692
0.00070544358
0.00086229859
0.0010558786
0.001180186
0.0011801263
0.0011799971
0.001179783
0.0011794758
0.0011790635
0.0011785324
0.0011778699
0.0011770652
0.0011761076
0.0011749769
0.0011736475
0.001172488
0.0011715407
0.0011707508
0.0011700426
0.0011693256
0.0011687081
0.001168514
0.0011680172
2.1706109e-07
9.7965795e-06
1.4043054e-05
1.2861233e-05
8.3078271e-06
9.0790253e-06
7.287735e-06
8.6366053e-06
9.0400926e-06
9.9114078e-06
1.0356042e-05
9.9215704e-06
9.704183e-06
9.354384e-06
9.1627465e-06
9.041924e-06
8.9889471e-06
8.9943432e-06
9.0507289e-06
9.1589e-06
9.3128516e-06
9.5148133e-06
9.7664063e-06
1.0067733e-05
1.042389e-05
1.0839954e-05
1.1321485e-05
1.1877371e-05
1.2517548e-05
1.3256503e-05
1.4112105e-05
1.510203e-05
1.6251098e-05
1.7587348e-05
1.9148216e-05
2.0978812e-05
2.313557e-05
2.568808e-05
2.8721908e-05
3.2341273e-05
3.6674286e-05
4.1879767e-05
4.815995e-05
5.5745464e-05
6.4934351e-05
7.6096466e-05
8.9687884e-05
0.00010624426
0.0001276011
0.00015246802
0.00018288714
0.0002201529
0.00026585038
0.00032194688
0.0003908797
0.00047566046
0.00058001863
0.00070859092
0.00086716059
0.0010629347
0.0011808396
0.0011806394
0.0011803708
0.0011800255
0.0011795956
0.0011790695
0.001178433
0.0011776726
0.0011767757
0.001175731
0.0011745383
0.0011732084
0.0011721238
0.0011712317
0.0011704897
0.0011698342
0.0011691611
0.0011685153
0.0011682229
0.0011677146
1.9939808e-07
9.7459987e-06
1.1137652e-05
1.0577024e-05
6.8832439e-06
8.0868982e-06
6.6566521e-06
7.7649298e-06
8.4628808e-06
8.8503483e-06
9.1622572e-06
8.611738e-06
8.345456e-06
8.1025963e-06
7.9616842e-06
7.8826536e-06
7.8597449e-06
7.8893405e-06
7.9635871e-06
8.0818899e-06
8.2427759e-06
8.4480031e-06
8.6996014e-06
8.9983479e-06
9.3494713e-06
9.7585749e-06
1.0231571e-05
1.077764e-05
1.1406731e-05
1.2133004e-05
1.2908325e-05
1.3872296e-05
1.4993846e-05
1.6300631e-05
1.7829906e-05
1.9626609e-05
2.1747077e-05
2.4261007e-05
2.7254631e-05
3.083317e-05
3.5126263e-05
4.0610552e-05
4.690612e-05
5.4523217e-05
6.3763249e-05
7.5000529e-05
8.8704694e-05
0.00010542475
0.00012585306
0.00015085277
0.00018314265
0.00022095036
0.00026734728
0.00032433901
0.0003944131
0.00048064392
0.00058683544
0.0007177134
0.00087916539
0.0010785329
0.0011815395
0.0011811966
0.0011807876
0.0011803098
0.0011797557
0.0011791142
0.0011783712
0.001177512
0.0011765239
0.0011753929
0.00117413
0.0011728602
0.0011718466
0.0011710078
0.0011703096
0.0011697028
0.0011690756
0.001168408
0.0011680167
0.0011676125
1.8346137e-07
9.6978527e-06
8.797837e-06
9.0152654e-06
6.1703436e-06
7.1721041e-06
6.1165334e-06
7.0072101e-06
7.8764809e-06
7.8633499e-06
7.8677614e-06
7.3990461e-06
7.1824977e-06
7.0048554e-06
6.907252e-06
6.8634715e-06
6.8684199e-06
6.9174006e-06
7.0070622e-06
7.1371763e-06
7.3062716e-06
7.5165742e-06
7.7710835e-06
8.071118e-06
8.4220567e-06
8.7920126e-06
9.2552099e-06
9.7911502e-06
1.0409652e-05
1.1124406e-05
1.1951884e-05
1.2913493e-05
1.403341e-05
1.5339438e-05
1.6869289e-05
1.8668505e-05
2.0794282e-05
2.3317452e-05
2.6326222e-05
2.9928331e-05
3.4256824e-05
3.9477972e-05
4.5795544e-05
5.3453981e-05
6.2760306e-05
7.4740287e-05
8.8686631e-05
0.00010572305
0.00012655525
0.00015207428
0.000183369
0.000223871
0.00027135917
0.00032971801
0.00040150204
0.00048986996
0.00059872581
0.00073291614
0.00089846958
0.0011028953
0.0011822587
0.0011817734
0.0011812258
0.0011806167
0.0011799393
0.0011791832
0.0011783346
0.0011773777
0.0011763001
0.0011750926
0.0011737599
0.0011726024
0.001171657
0.0011708704
0.0011702129
0.001169648
0.0011690656
0.001168397
0.0011679358
0.0011675904
1.6956111e-07
9.6263254e-06
7.0089636e-06
7.9319124e-06
5.5097722e-06
6.3550434e-06
5.6530297e-06
6.3353388e-06
7.1758721e-06
6.7425888e-06
6.6999911e-06
6.33984e-06
6.1692249e-06
6.044693e-06
5.9845017e-06
5.9712043e-06
6.0001015e-06
6.0686638e-06
6.1737572e-06
6.3161047e-06
6.4951905e-06
6.7133819e-06
6.9447497e-06
7.2437871e-06
7.5936728e-06
7.9993882e-06
8.4691782e-06
9.0118799e-06
9.6375484e-06
1.0360109e-05
1.119623e-05
1.2167106e-05
1.329839e-05
1.4618379e-05
1.6165544e-05
1.7986459e-05
2.0139804e-05
2.2698131e-05
2.5752432e-05
2.9414131e-05
3.3819905e-05
3.9140092e-05
4.5589265e-05
5.341843e-05
6.2944703e-05
7.4562566e-05
8.8762129e-05
0.00010613602
0.00012853637
0.0001547961
0.00018701922
0.00022659768
0.00027787453
0.0003380826
0.00041215878
0.00050336964
0.00061574699
0.00075429189
0.00092521782
0.0011362377
0.0011829709
0.001182346
0.0011816645
0.0011809278
0.0011801302
0.0011792622
0.0011783109
0.0011772598
0.0011760948
0.0011748242
0.001173502
0.0011724313
0.0011715528
0.0011708182
0.0011702005
0.001169669
0.0011691226
0.0011684776
0.0011679983
0.0011676872
1.5735498e-07
9.5002109e-06
5.6375461e-06
6.9514948e-06
4.9182493e-06
5.6281085e-06
5.2614868e-06
5.6495829e-06
6.2927173e-06
5.7706774e-06
5.6774793e-06
5.4156823e-06
5.2882847e-06
5.2082054e-06
5.1812546e-06
5.1955487e-06
5.2470933e-06
5.3344698e-06
5.4556053e-06
5.5907137e-06
5.775501e-06
5.9995908e-06
6.2657753e-06
6.5776312e-06
6.9402149e-06
7.3589078e-06
7.8418451e-06
8.3985584e-06
9.0393513e-06
9.7783543e-06
1.0632415e-05
1.1623053e-05
1.2718898e-05
1.4052959e-05
1.5617356e-05
1.7459664e-05
1.9640283e-05
2.2233538e-05
2.5333255e-05
2.9055112e-05
3.3540567e-05
3.9261082e-05
4.5900754e-05
5.39722e-05
6.3803885e-05
7.5802143e-05
9.0481183e-05
0.00010846058
0.00013049929
0.00015898553
0.00019240653
0.00023347587
0.00028397177
0.00034941491
0.00042637737
0.00052115301
0.00063793292
0.0007819068
0.00095952351
0.0011787493
0.0011836519
0.0011828928
0.0011820842
0.0011812259
0.0011803133
0.001179338
0.0011782882
0.0011771492
0.001175905
0.0011745681
0.0011733362
0.0011723451
0.0011715297
0.0011708476
0.0011702716
0.0011697653
0.0011692395
0.001168642
0.0011682197
0.0011679183
1.4663182e-07
9.2851727e-06
4.6067728e-06
6.0763375e-06
4.3902182e-06
4.9837743e-06
4.9220218e-06
4.9035133e-06
5.402848e-06
4.9066175e-06
4.7939506e-06
4.6131731e-06
4.5266172e-06
4.4849006e-06
4.4881874e-06
4.5281526e-06
4.6016542e-06
4.6894975e-06
4.8216161e-06
4.9888659e-06
5.1924362e-06
5.4342441e-06
5.7178089e-06
6.0468864e-06
6.427132e-06
6.8641927e-06
7.366269e-06
7.9196086e-06
8.5757693e-06
9.3311274e-06
1.0202635e-05
1.1211908e-05
1.2385409e-05
1.3756412e-05
1.5364658e-05
1.7259402e-05
1.9503907e-05
2.2175445e-05
2.537174e-05
2.9214515e-05
3.3851933e-05
3.947068e-05
4.6296589e-05
5.4607903e-05
6.4747518e-05
7.7785054e-05
9.3066156e-05
0.0001117964
0.00013477285
0.00016297891
0.00019948328
0.00024236714
0.00029511518
0.00036001643
0.00044411423
0.00054318597
0.00066526548
0.00081576613
0.0010014234
0.0011851398
0.0011842799
0.0011833949
0.001182468
0.0011814961
0.0011804756
0.0011793994
0.0011782564
0.0011770351
0.0011757309
0.0011743757
0.0011732564
0.0011723385
0.001171582
0.0011709526
0.0011704222
0.0011699365
0.001169413
0.0011688707
0.0011685774
0.0011682941
1.3730178e-07
8.9832825e-06
3.9598036e-06
5.2992504e-06
3.9212489e-06
4.4140076e-06
4.3828707e-06
4.2297874e-06
4.5454133e-06
4.1445847e-06
4.0385106e-06
3.9223543e-06
3.8740872e-06
3.866473e-06
3.8978444e-06
3.9478306e-06
4.0361872e-06
4.158446e-06
4.313922e-06
4.5030659e-06
4.727701e-06
4.9902668e-06
5.2947067e-06
5.6450627e-06
6.0337625e-06
6.4895179e-06
7.0108423e-06
7.6072583e-06
8.2907541e-06
9.0756362e-06
9.9793545e-06
1.1024472e-05
1.2238615e-05
1.3656418e-05
1.532045e-05
1.728189e-05
1.9607519e-05
2.2378391e-05
2.5696425e-05
2.9690778e-05
3.4515765e-05
4.036774e-05
4.7487533e-05
5.6166202e-05
6.6766411e-05
7.9733224e-05
9.6463627e-05
0.00011608945
0.00014017453
0.0001697634
0.00020611469
0.00025319137
0.00030857677
0.00037674703
0.00046066815
0.00056935953
0.00069763723
0.00085577095
0.0010508239
0.0011858075
0.0011848364
0.0011838371
0.001182802
0.0011817261
0.0011806061
0.0011794367
0.0011782085
0.0011769116
0.001175557
0.0011742846
0.0011732543
0.0011724051
0.0011717032
0.0011711255
0.0011706438
0.0011701802
0.0011696479
0.0011691482
0.0011689764
0.0011687766
1.2940475e-07
8.1090027e-06
3.492595e-06
4.6051282e-06
3.5060505e-06
3.7449005e-06
3.9079809e-06
3.6127545e-06
3.7689733e-06
3.4832544e-06
3.4000435e-06
3.3353718e-06
3.3224451e-06
3.3460219e-06
3.3869984e-06
3.470643e-06
3.5869919e-06
3.7348563e-06
3.9144781e-06
4.127054e-06
4.3749649e-06
4.6609271e-06
4.9797744e-06
5.351522e-06
5.7753258e-06
6.2578625e-06
6.8071758e-06
7.4331577e-06
8.1480783e-06
8.9671902e-06
9.9085475e-06
1.0995733e-05
1.2257694e-05
1.3730874e-05
1.5394341e-05
1.7417944e-05
1.9819456e-05
2.2684297e-05
2.6276118e-05
3.0450347e-05
3.5498075e-05
4.1625256e-05
4.9089025e-05
5.8196403e-05
6.9328947e-05
8.29591e-05
9.9666604e-05
0.00012016313
0.0001466215
0.00017779072
0.00021610067
0.00026321115
0.00032421115
0.00039610452
0.00048462737
0.00059945279
0.00073480364
0.00090166145
0.0011074527
0.0011863843
0.0011853096
0.0011842075
0.0011830756
0.0011819068
0.001180697
0.0011794428
0.0011781384
0.0011767832
0.0011754125
0.0011742714
0.0011733231
0.0011725373
0.0011718865
0.0011713578
0.0011709237
0.0011704873
0.0011699525
0.001169496
0.0011694477
0.0011694487
1.2318823e-07
5.9144604e-06
3.0944782e-06
3.9768443e-06
3.1479173e-06
3.1269112e-06
3.4335158e-06
3.0532202e-06
3.1013998e-06
2.9187563e-06
2.8665549e-06
2.8445015e-06
2.8558239e-06
2.9004301e-06
2.9816311e-06
3.0949911e-06
3.2384739e-06
3.4119538e-06
3.6164621e-06
3.8536555e-06
4.1203809e-06
4.4293959e-06
4.7808741e-06
5.179569e-06
5.6311745e-06
6.1426126e-06
6.7223177e-06
7.3805928e-06
8.1301253e-06
8.9671659e-06
9.9437772e-06
1.106987e-05
1.2375626e-05
1.3898863e-05
1.5686873e-05
1.779877e-05
2.0307631e-05
2.3304908e-05
2.6904052e-05
3.1245206e-05
3.6502348e-05
4.3198608e-05
5.1050893e-05
6.0642537e-05
7.2375256e-05
8.6748514e-05
0.00010437677
0.00012601663
0.00015399925
0.00018692864
0.00022741872
0.00027722254
0.00034179647
0.00041782871
0.00051147526
0.00062685563
0.00077633856
0.00095295541
0.0011707737
0.0011868635
0.0011856926
0.0011844993
0.0011832817
0.0011820319
0.0011807435
0.0011794143
0.0011780432
0.0011766445
0.0011753671
0.0011743233
0.0011734531
0.0011727263
0.0011721249
0.0011716414
0.0011712477
0.0011708414
0.0011703298
0.0011699364
0.0011699998
0.0011700637
1.1831457e-07
4.4254386e-06
2.7381941e-06
3.3955528e-06
2.6911956e-06
2.6075285e-06
2.9328365e-06
2.5548391e-06
2.5465415e-06
2.4451389e-06
2.4279902e-06
2.4354213e-06
2.4795464e-06
2.5599171e-06
2.6720311e-06
2.813294e-06
2.9829789e-06
3.1816948e-06
3.4078673e-06
3.6685256e-06
3.9648693e-06
4.3002341e-06
4.678688e-06
5.1051888e-06
5.5857265e-06
6.1275323e-06
6.7393967e-06
7.4209223e-06
8.2032506e-06
9.0950801e-06
1.0116825e-05
1.1293847e-05
1.2658111e-05
1.4249756e-05
1.6119092e-05
1.8328803e-05
2.0956781e-05
2.4099914e-05
2.787871e-05
3.2442667e-05
3.7977001e-05
4.4710051e-05
5.3317896e-05
6.344014e-05
7.5830336e-05
9.101703e-05
0.00010965108
0.00013253544
0.0001606605
0.00019699888
0.00023985717
0.00029258976
0.00035750252
0.00044154639
0.00054076141
0.00066303185
0.00082159135
0.0010088869
0.0011885068
0.0011872426
0.0011859842
0.0011847105
0.0011834176
0.0011820981
0.0011807435
0.0011793507
0.001177933
0.0011765348
0.0011753863
0.0011744312
0.0011736334
0.0011729625
0.0011724094
0.0011719691
0.0011716053
0.0011712203
0.001170751
0.0011704324
0.0011705791
0.0011706763
1.1315964e-07
3.9400524e-06
2.3590243e-06
2.8579247e-06
2.3186657e-06
2.1728848e-06
2.4160963e-06
2.119125e-06
2.0979585e-06
2.0591411e-06
2.0726953e-06
2.1161418e-06
2.1974001e-06
2.3093582e-06
2.4493186e-06
2.6162833e-06
2.8105373e-06
3.0310852e-06
3.2835092e-06
3.5691171e-06
3.8908741e-06
4.252382e-06
4.6579562e-06
5.1127591e-06
5.6230002e-06
6.1961861e-06
6.8338795e-06
7.5591092e-06
8.3805648e-06
9.3153595e-06
1.0385026e-05
1.1616448e-05
1.3043436e-05
1.4708487e-05
1.6665077e-05
1.8980135e-05
2.1736729e-05
2.5037775e-05
2.9011236e-05
3.3815233e-05
3.9646012e-05
4.7084477e-05
5.5825204e-05
6.6513064e-05
7.9603884e-05
9.5656758e-05
0.00011536065
0.00013956545
0.00017088838
0.00020777012
0.00025313516
0.00030896836
0.00037771632
0.00046674954
0.00057187721
0.00070147542
0.00086963883
0.0010683343
0.0011888541
0.0011875221
0.0011861882
0.0011848444
0.001183485
0.0011821054
0.0011806981
0.0011792552
0.0011777999
0.0011765141
0.0011754563
0.0011745819
0.0011738521
0.0011732361
0.0011727285
0.0011723307
0.0011719913
0.0011716233
0.001171201
0.0011709696
0.0011711824
0.0011712804
1.0972791e-07
3.430203e-06
2.0335036e-06
2.3112471e-06
2.0135771e-06
1.8021027e-06
1.937617e-06
1.7520993e-06
1.7483628e-06
1.7595945e-06
1.8043079e-06
1.8862954e-06
1.9987717e-06
2.1376967e-06
2.3020012e-06
2.4919286e-06
2.7073907e-06
2.9520557e-06
3.2277608e-06
3.53723e-06
3.8837263e-06
4.2710706e-06
4.7037465e-06
5.1870671e-06
5.7274116e-06
6.328213e-06
7.0053525e-06
7.7676552e-06
8.6294232e-06
9.6086112e-06
1.0728014e-05
1.2016111e-05
1.3508752e-05
1.5250933e-05
1.7299225e-05
1.9724743e-05
2.2616352e-05
2.6083104e-05
3.026114e-05
3.5318013e-05
4.1734126e-05
4.9280602e-05
5.849547e-05
6.9770791e-05
8.35873e-05
0.00010053726
0.00012134933
0.00014692291
0.00017997453
0.00021894549
0.00026689555
0.00032592537
0.00039863213
0.00049276108
0.0006040017
0.00074119127
0.00091924593
0.0011297909
0.0011891045
0.0011877108
0.0011863124
0.001184909
0.0011834924
0.0011820582
0.0011806073
0.0011791484
0.0011777171
0.0011765485
0.001175571
0.0011747629
0.0011740944
0.001173538
0.0011730692
0.0011727117
0.0011723945
0.0011720424
0.001171669
0.0011715246
0.0011717843
0.0011718606
1.0828799e-07
2.8981399e-06
1.7522899e-06
1.7849085e-06
1.7352054e-06
1.4864575e-06
1.5482228e-06
1.4614379e-06
1.4896454e-06
1.5365156e-06
1.6200747e-06
1.7324306e-06
1.8700347e-06
2.0312978e-06
2.2165001e-06
2.4268116e-06
2.6632075e-06
2.9292095e-06
3.2269525e-06
3.5594278e-06
3.9300723e-06
4.3428503e-06
4.8023694e-06
5.3140625e-06
5.8844375e-06
6.5214189e-06
7.2347885e-06
8.0367173e-06
8.9321682e-06
9.9563281e-06
1.1126218e-05
1.2472014e-05
1.4031742e-05
1.5853123e-05
1.7995872e-05
2.0618281e-05
2.3670672e-05
2.7333806e-05
3.1752721e-05
3.7106287e-05
4.3614754e-05
5.1548937e-05
6.1243384e-05
7.3109916e-05
8.7655808e-05
0.00010550641
0.00012743138
0.00015572814
0.0001891108
0.00023017031
0.00028070223
0.00034292577
0.00042355849
0.00051874461
0.00063611012
0.00078092769
0.00096884691
0.0011907596
0.0011892739
0.0011878234
0.0011863692
0.0011849147
0.0011834524
0.0011819743
0.0011804772
0.0011789943
0.0011777058
0.0011766254
0.0011757225
0.0011749688
0.0011743454
0.0011738539
0.0011734204
0.0011730965
0.0011728019
0.0011724729
0.001172153
0.0011720815
0.0011723642
0.0011724063
1.0990821e-07
2.3671616e-06
1.5185619e-06
1.3807906e-06
1.4545821e-06
1.2230365e-06
1.2638927e-06
1.249111e-06
1.3103586e-06
1.3915465e-06
1.5032578e-06
1.6385351e-06
1.7960672e-06
1.9759853e-06
2.1795147e-06
2.4084056e-06
2.6644314e-06
2.9506294e-06
3.2695438e-06
3.6242981e-06
4.0184309e-06
4.4559991e-06
4.9417121e-06
5.4811223e-06
6.0808894e-06
6.7491366e-06
7.4959269e-06
8.3338579e-06
9.2788003e-06
1.0350833e-05
1.157534e-05
1.2984472e-05
1.4618732e-05
1.6529037e-05
1.87791e-05
2.1448376e-05
2.4635686e-05
2.8463932e-05
3.3085137e-05
3.8687419e-05
4.5503058e-05
5.3817717e-05
6.3980699e-05
7.6424716e-05
9.168131e-05
0.00011131982
0.00013449322
0.00016296646
0.00019797587
0.00024104911
0.00029407208
0.00036275047
0.00044381516
0.00054374432
0.00066702151
0.00082717798
0.0010165911
0.0011909011
0.0011893796
0.0011878797
0.001186378
0.0011848765
0.0011833733
0.0011818688
0.0011803674
0.0011789093
0.0011777291
0.0011767321
0.0011758986
0.0011751998
0.0011746221
0.0011741435
0.0011737721
0.0011734719
0.0011731991
0.001172902
0.0011726421
0.001172626
0.0011729031
0.0011729171
1.158061e-07
1.8727762e-06
1.3309385e-06
1.0863316e-06
1.301536e-06
1.0035574e-06
1.0707586e-06
1.1081743e-06
1.1959276e-06
1.3042481e-06
1.4363535e-06
1.5892132e-06
1.7632349e-06
1.9595597e-06
2.1799032e-06
2.426274e-06
2.7009581e-06
3.0063261e-06
3.3454824e-06
3.7215202e-06
4.138053e-06
4.5992228e-06
5.1098419e-06
5.6755927e-06
6.3033017e-06
7.0013103e-06
7.7799746e-06
8.6523448e-06
9.6349145e-06
1.0748642e-05
1.2020053e-05
1.3482825e-05
1.5179425e-05
1.716327e-05
1.9501215e-05
2.2276652e-05
2.5593201e-05
2.9579261e-05
3.4393568e-05
4.023206e-05
4.7659517e-05
5.6397995e-05
6.7078207e-05
8.0153894e-05
9.6182763e-05
0.00011585184
0.00014000823
0.00016969685
0.00020620365
0.00025347102
0.00030918962
0.0003778043
0.00046235934
0.00056663586
0.00070211955
0.00086226868
0.0010602145
0.0011909852
0.0011894328
0.0011878974
0.0011863617
0.0011848231
0.0011832784
0.0011817325
0.0011802192
0.0011788921
0.0011777838
0.0011768557
0.001176078
0.0011754251
0.0011748982
0.0011744473
0.0011741074
0.0011738296
0.0011735737
0.0011733118
0.0011731147
0.00117315
0.0011734111
0.0011733833
1.267144e-07
1.4980177e-06
1.1723264e-06
9.4003236e-07
9.5438839e-07
8.7977044e-07
9.4225849e-07
1.0219012e-06
1.1298241e-06
1.2571066e-06
1.4045635e-06
1.5719957e-06
1.7606287e-06
1.9719853e-06
2.2079229e-06
2.4705154e-06
2.7620839e-06
3.0852163e-06
3.4428134e-06
3.838143e-06
4.2749175e-06
4.7574005e-06
5.290556e-06
5.8802606e-06
6.5335981e-06
7.2566696e-06
8.0639618e-06
8.9673261e-06
9.9927996e-06
1.1148222e-05
1.2467444e-05
1.398581e-05
1.5747847e-05
1.7809486e-05
2.0240673e-05
2.3128532e-05
2.6581225e-05
3.0732675e-05
3.5748324e-05
4.183227e-05
4.9236045e-05
5.826946e-05
6.9313765e-05
8.2836039e-05
9.9413593e-05
0.0001197567
0.0001460295
0.00017697255
0.0002150121
0.00026180878
0.0003194162
0.00039038146
0.00047786476
0.00059136301
0.00072559852
0.00089146308
0.0010966332
0.0011910369
0.0011894548
0.0011878895
0.0011863299
0.0011847725
0.0011832141
0.0011816602
0.0011801551
0.0011789175
0.0011778718
0.0011769975
0.0011762653
0.0011756527
0.0011751722
0.0011747345
0.0011744165
0.0011741631
0.0011739207
0.001173692
0.001173548
0.001173619
0.0011738615
0.0011738161
1.486142e-07
1.5075509e-06
1.0118925e-06
7.1795712e-07
7.7889694e-07
7.8589309e-07
8.6961273e-07
9.7163863e-07
1.095635e-06
1.2373684e-06
1.3980157e-06
1.5784839e-06
1.780274e-06
2.0050197e-06
2.254607e-06
2.5311385e-06
2.8369692e-06
3.174736e-06
3.5474005e-06
3.958302e-06
4.4112301e-06
4.9105293e-06
5.4612468e-06
6.069346e-06
6.7420085e-06
7.488048e-06
8.3184581e-06
9.2471131e-06
1.0291656e-05
1.1474558e-05
1.2824382e-05
1.4377385e-05
1.6179301e-05
1.8287589e-05
2.0774082e-05
2.3728209e-05
2.7260928e-05
3.1509495e-05
3.6643315e-05
4.2871138e-05
5.0450046e-05
6.0124178e-05
7.151584e-05
8.5458792e-05
0.00010254728
0.00012351205
0.00014925476
0.00018088849
0.00021978875
0.00026765501
0.00032659671
0.00040291492
0.00049313172
0.00060444932
0.00074194579
0.00091196983
0.001122462
0.0011911002
0.0011894873
0.0011878894
0.0011863005
0.0011847182
0.0011831429
0.0011815923
0.001180159
0.0011789799
0.0011779851
0.0011771535
0.0011764583
0.0011758805
0.0011754059
0.0011750193
0.0011746882
0.0011744666
0.0011742388
0.0011740411
0.0011739324
0.0011740061
0.0011742082
0.0011741715
1.4493466e-07
9.2213867e-07
8.2850676e-07
6.1116788e-07
6.6858726e-07
7.2888135e-07
8.3083448e-07
9.4942243e-07
1.0863151e-06
1.240502e-06
1.4132358e-06
1.6057101e-06
1.8194547e-06
2.0561714e-06
2.3177874e-06
2.6064632e-06
2.9246209e-06
3.2749333e-06
3.6604986e-06
4.0847148e-06
4.5514554e-06
5.0651494e-06
5.630931e-06
6.2548546e-06
6.9442022e-06
7.7079049e-06
8.5571018e-06
9.5058628e-06
1.0580728e-05
1.1791145e-05
1.3172202e-05
1.4761078e-05
1.6604604e-05
1.8761569e-05
2.1305388e-05
2.4327414e-05
2.7940912e-05
3.2285948e-05
3.7535379e-05
4.3902202e-05
5.164857e-05
6.1096796e-05
7.2642899e-05
8.6775495e-05
0.0001040955
0.00012534394
0.00015143523
0.00018510924
0.00022482991
0.00027369617
0.00033386347
0.00040800513
0.0004994477
0.0006123388
0.00075186207
0.00092451158
0.0011384235