/*--------------------------------*- C++ -*----------------------------------*\
| =========                 |                                                 |
| \\      /  F ield         | OpenFOAM: The Open Source CFD Toolbox           |
|  \\    /   O peration     | Version:  2512                                  |
|   \\  /    A nd           | Website:  www.openfoam.com                      |
|    \\/     M anipulation  |                                                 |
\*---------------------------------------------------------------------------*/
FoamFile
{
    version     2.0;
    format      ascii;
    arch        "LSB;label=32;scalar=64";
    class       volScalarField;
    location    "0.148";
    object      k;
}
// * * * * * * * * * * * * * * * * * * * * * * * * * * * * * * * * * * * * * //

dimensions      [0 2 -2 0 0 0 0];

internalField   nonuniform List<scalar> 
16000
(
0.060191359
0.021380842
0.02240868
0.01651703
0.013992518
0.012669388
0.01188057
0.011407056
0.011090596
0.010875681
0.010717256
0.010599267
0.010507066
0.010434061
0.0103753
0.010327833
0.010289033
0.010257159
0.010231187
0.010209715
0.010192308
0.010178023
0.010166565
0.010157448
0.010150325
0.010144911
0.010141004
0.010138435
0.010137063
0.010136756
0.01013739
0.010138863
0.01014109
0.010144001
0.010147537
0.010151638
0.010156245
0.010161302
0.010166751
0.010172538
0.010178599
0.010184868
0.010191278
0.010197764
0.010204252
0.010210667
0.010216949
0.01022305
0.010228927
0.010234542
0.010239857
0.010244831
0.010249421
0.010253579
0.010257261
0.010260428
0.010263035
0.010265036
0.01026638
0.010267008
0.010266846
0.010265799
0.010263768
0.010260621
0.010256194
0.010250328
0.010242902
0.010233816
0.010222916
0.010209921
0.01019433
0.010175199
0.01015181
0.010127796
0.010108044
0.010091609
0.010078305
0.010083446
0.010062664
0.01008597
0.055679176
0.020033362
0.020952088
0.015971062
0.01365029
0.012469726
0.011719461
0.011295282
0.010990635
0.010793199
0.010644748
0.010535494
0.010449666
0.010382125
0.01032781
0.010284186
0.010248743
0.010219728
0.010196378
0.010177185
0.010161902
0.010149527
0.010139834
0.010132364
0.010126788
0.01012282
0.01012027
0.010118973
0.010118793
0.010119608
0.010121297
0.010123757
0.010126902
0.01013066
0.010134971
0.010139776
0.010145018
0.010150638
0.01015658
0.010162791
0.010169211
0.010175775
0.010182418
0.01018908
0.010195689
0.010202175
0.010208476
0.010214545
0.010220342
0.010225834
0.010230989
0.010235771
0.010240142
0.01024406
0.010247484
0.010250377
0.0102527
0.010254409
0.010255455
0.010255784
0.01025533
0.010254008
0.010251727
0.010248363
0.010243754
0.010237732
0.010230161
0.010220938
0.010209913
0.010196814
0.010181207
0.010162256
0.010139292
0.010116556
0.010097898
0.010081999
0.010070894
0.010070466
0.010061946
0.010086
0.048685886
0.019065174
0.019609765
0.015410204
0.013299833
0.012244296
0.011552284
0.011169331
0.010888683
0.010709315
0.010571974
0.010471883
0.010392928
0.010331145
0.010281595
0.010242043
0.010210193
0.010184229
0.010163681
0.010146923
0.010133903
0.010123569
0.010115755
0.01011003
0.010106089
0.01010365
0.010102533
0.010102576
0.010103651
0.010105641
0.010108428
0.010111911
0.010116003
0.010120629
0.010125728
0.01013124
0.010137108
0.010143274
0.010149681
0.010156275
0.010163002
0.010169798
0.010176602
0.010183354
0.010189991
0.010196445
0.010202656
0.010208579
0.010214179
0.010219427
0.010224297
0.01022876
0.010232784
0.010236333
0.01023937
0.010241861
0.010243771
0.010245061
0.010245685
0.01024559
0.010244718
0.010242992
0.010240329
0.010236614
0.010231692
0.010225389
0.010217557
0.010208084
0.010196827
0.010183514
0.010167748
0.010148829
0.010126153
0.010104843
0.010087367
0.010072631
0.010062621
0.010060209
0.010059251
0.010082878
0.044776962
0.018412099
0.018461317
0.014907579
0.012982643
0.012040833
0.011399599
0.011055387
0.010795265
0.010632324
0.010505576
0.01041395
0.010341552
0.010285216
0.010240219
0.01020455
0.010176169
0.010153131
0.010135305
0.010120902
0.010110087
0.010101746
0.010095772
0.010091754
0.010089415
0.010088476
0.010088763
0.01009012
0.010092419
0.01009555
0.010099399
0.010103862
0.010108851
0.010114289
0.010120112
0.01012626
0.010132674
0.010139298
0.010146075
0.010152951
0.010159875
0.010166787
0.01017363
0.010180348
0.010186885
0.010193177
0.010199169
0.010204818
0.010210094
0.010214972
0.010219434
0.010223458
0.010227019
0.010230085
0.010232627
0.010234612
0.01023601
0.010236786
0.010236896
0.010236291
0.010234917
0.010232704
0.010229579
0.010225435
0.010220124
0.010213469
0.010205309
0.010195523
0.010183975
0.010170391
0.010154397
0.010135472
0.010113013
0.010093134
0.010076918
0.010063442
0.010054015
0.010050847
0.010054564
0.010073879
0.041464824
0.018024128
0.017531228
0.014442457
0.012687182
0.011848563
0.011256416
0.010947898
0.010708186
0.010560648
0.010444298
0.010360747
0.010294769
0.010243726
0.010203196
0.010171316
0.01014637
0.010126209
0.010111092
0.010099029
0.010090415
0.010084072
0.010079953
0.010077643
0.01007691
0.010077477
0.010079171
0.010081842
0.01008536
0.010089617
0.010094504
0.010099914
0.010105758
0.010111956
0.010118441
0.01012515
0.010132026
0.010139012
0.010146052
0.010153095
0.010160093
0.010166992
0.010173738
0.010180281
0.010186574
0.01019256
0.010198189
0.010203421
0.010208231
0.010212603
0.010216523
0.010219977
0.010222948
0.010225411
0.010227339
0.010228706
0.010229484
0.010229643
0.010229142
0.010227933
0.010225964
0.010223175
0.010219498
0.010214836
0.01020905
0.010201963
0.010193401
0.010183231
0.010171323
0.010157408
0.0101411
0.010122108
0.010100033
0.010081591
0.010066701
0.010054481
0.010045538
0.010042386
0.01004924
0.010061858
0.03662242
0.017862101
0.016833148
0.014016219
0.012415599
0.011669728
0.011124146
0.010848384
0.010628297
0.01049494
0.01038869
0.01031275
0.010252985
0.010207045
0.010170865
0.010142664
0.010121104
0.010103767
0.010091337
0.01008161
0.010075184
0.01007085
0.010068627
0.010068009
0.010068869
0.010070939
0.010074035
0.010078004
0.010082717
0.010088067
0.010093945
0.010100245
0.010106872
0.010113745
0.010120795
0.010127956
0.010135173
0.01014239
0.010149554
0.010156616
0.010163533
0.010170259
0.010176747
0.010182954
0.01018884
0.010194359
0.010199468
0.010204132
0.010208332
0.010212058
0.010215302
0.01021806
0.01022032
0.010222065
0.010223273
0.01022392
0.010223983
0.010223434
0.010222235
0.010220341
0.010217702
0.01021426
0.010209957
0.010204705
0.010198371
0.010190784
0.010181759
0.010171147
0.010158821
0.010144532
0.010127853
0.010108704
0.010087298
0.010070306
0.010056789
0.010045811
0.01003741
0.010034439
0.010042998
0.010051816
0.033914959
0.017873894
0.016332705
0.013625152
0.012165269
0.011503626
0.011002436
0.010756578
0.010555422
0.010435071
0.010338602
0.010269897
0.010216173
0.010175205
0.010143311
0.010118722
0.01010054
0.01008602
0.01007627
0.010068939
0.010064684
0.010062417
0.010062245
0.010063245
0.010065646
0.010069219
0.010073704
0.010078949
0.010084821
0.010091212
0.010098013
0.010105117
0.010112429
0.010119862
0.010127347
0.010134819
0.010142223
0.010149506
0.010156621
0.010163525
0.010170179
0.010176547
0.010182593
0.010188281
0.010193582
0.010198462
0.010202885
0.010206823
0.010210264
0.010213204
0.010215641
0.010217579
0.010219012
0.010219931
0.010220318
0.010220152
0.010219412
0.010218072
0.010216099
0.010213448
0.010210068
0.010205908
0.010200913
0.010195003
0.010188057
0.010179908
0.010170366
0.010159262
0.010146465
0.010131764
0.010114692
0.010095246
0.010074984
0.010059441
0.010047306
0.010037561
0.010029818
0.010027098
0.010035615
0.010042006
0.032047411
0.017985994
0.015911988
0.01326692
0.011934563
0.011350094
0.010890729
0.010672379
0.010489206
0.010380981
0.010294036
0.0102323
0.010184498
0.010148427
0.010120796
0.010099791
0.010084984
0.010073329
0.010066186
0.010061463
0.010059239
0.010059248
0.010060531
0.010063507
0.010067618
0.010072675
0.010078518
0.010084989
0.010091954
0.0100993
0.010106918
0.010114701
0.010122554
0.010130388
0.010138134
0.010145729
0.010153122
0.010160266
0.010167121
0.010173653
0.010179832
0.010185633
0.010191032
0.010196004
0.010200531
0.010204592
0.010208161
0.010211218
0.010213756
0.010215776
0.010217284
0.010218288
0.010218792
0.01021879
0.010218268
0.010217208
0.010215591
0.010213393
0.010210582
0.010207114
0.010202939
0.010198006
0.010192265
0.010185644
0.010178032
0.010169271
0.010159167
0.010147532
0.010134221
0.010119072
0.010101648
0.010081768
0.010063197
0.010049101
0.010038336
0.010029812
0.010022832
0.010020376
0.010028216
0.010033116
0.028987584
0.018139577
0.015391418
0.012938438
0.0117222
0.011208281
0.010788565
0.010595343
0.010429992
0.010333061
0.010255342
0.010200355
0.010158358
0.010127123
0.010103746
0.01008632
0.010074805
0.010066179
0.010061271
0.010059349
0.010057857
0.010061387
0.010064838
0.010069506
0.010075194
0.010081696
0.01008883
0.010096441
0.010104388
0.010112554
0.010120832
0.010129116
0.010137312
0.010145333
0.010153112
0.010160593
0.010167731
0.010174488
0.010180836
0.010186751
0.010192218
0.010197223
0.010201757
0.010205808
0.01020937
0.010212435
0.010214988
0.010217016
0.010218518
0.010219499
0.01021997
0.010219944
0.01021943
0.010218428
0.010216926
0.010214908
0.010212355
0.010209245
0.010205547
0.010201217
0.010196205
0.010190458
0.010183931
0.010176558
0.010168238
0.010158822
0.010148119
0.010135929
0.010122076
0.010106431
0.010088753
0.010068729
0.010052053
0.010039403
0.010029964
0.010022645
0.010016538
0.010014288
0.010021042
0.010024482
0.026914838
0.018267323
0.01471981
0.012637056
0.011528391
0.01107913
0.01069727
0.010526422
0.010378338
0.010291748
0.010222941
0.010174522
0.010138223
0.010111777
0.010092653
0.010078858
0.010070207
0.010065167
0.010060923
0.01006363
0.0100662
0.010069832
0.010075166
0.010081559
0.010088784
0.010096639
0.010104948
0.010113551
0.010122306
0.010131094
0.010139807
0.010148346
0.01015662
0.01016455
0.010172076
0.010179151
0.010185742
0.010191826
0.010197387
0.010202419
0.01020692
0.010210892
0.010214342
0.010217271
0.010219686
0.010221589
0.01022298
0.01022385
0.010224203
0.010224046
0.010223394
0.010222263
0.010220664
0.010218602
0.010216069
0.010213048
0.010209519
0.01020546
0.010200842
0.010195621
0.010189743
0.010183156
0.010175817
0.010167664
0.010158604
0.010148503
0.010137175
0.010124411
0.010110013
0.010093833
0.010075934
0.010056565
0.010041648
0.010030431
0.010022255
0.010016107
0.010010981
0.01000891
0.010014218
0.010016486
0.025175267
0.018354444
0.014170076
0.01236115
0.011353834
0.010962278
0.010616849
0.010465873
0.010334268
0.010257415
0.010197236
0.010155277
0.010124605
0.010102936
0.01008806
0.010078089
0.010070527
0.010070995
0.010071963
0.01007426
0.010078831
0.010084942
0.0100921
0.010100113
0.010108748
0.010117799
0.01012709
0.01013646
0.010145766
0.010154891
0.010163731
0.010172198
0.010180211
0.010187704
0.01019463
0.010200959
0.010206674
0.010211769
0.010216248
0.01022012
0.010223402
0.010226113
0.010228272
0.010229897
0.010231004
0.010231608
0.010231715
0.010231325
0.010230442
0.010229076
0.010227241
0.010224954
0.010222229
0.010219072
0.010215476
0.010211426
0.0102069
0.010201874
0.010196319
0.010190191
0.010183436
0.010175999
0.010167834
0.010158885
0.010149069
0.010138263
0.010126291
0.010112943
0.010098016
0.01008132
0.01006308
0.01004529
0.010032069
0.010022252
0.010015262
0.010010221
0.010006149
0.010004319
0.010008048
0.01001003
0.023561162
0.018429032
0.013676943
0.012110845
0.011198395
0.01085757
0.01054677
0.010413973
0.010298224
0.010230559
0.010178746
0.010143194
0.010118113
0.010101245
0.010090592
0.01008487
0.010083207
0.010083609
0.010086945
0.010092375
0.0100992
0.010107179
0.010116047
0.010125513
0.010135345
0.010145336
0.010155312
0.010165117
0.010174612
0.010183687
0.010192251
0.010200233
0.010207571
0.01021422
0.010220154
0.010225363
0.010229852
0.010233637
0.01023674
0.010239191
0.010241023
0.01024227
0.010242965
0.010243136
0.010242811
0.01024201
0.010240748
0.01023903
0.010236859
0.010234243
0.010231195
0.01022773
0.010223862
0.010219596
0.01021493
0.010209846
0.01020432
0.010198326
0.010191834
0.010184801
0.010177172
0.010168886
0.010159897
0.01015015
0.010139572
0.010128052
0.010115431
0.010101493
0.01008605
0.010068974
0.010050384
0.010034957
0.010023369
0.010014907
0.01000902
0.010004988
0.010001982
0.010000572
0.010002952
0.010004327
0.022136849
0.018429745
0.01326122
0.011885301
0.011061225
0.010765431
0.010487672
0.01037131
0.010270525
0.010211737
0.010168087
0.010138949
0.010119467
0.010107453
0.01010109
0.01009903
0.01010032
0.010104484
0.010110602
0.010118294
0.01012721
0.010136987
0.010147322
0.010157949
0.010168637
0.01017918
0.010189413
0.01019919
0.01020839
0.010216921
0.010224714
0.010231722
0.010237914
0.010243274
0.010247802
0.010251514
0.010254439
0.010256613
0.01025808
0.010258887
0.01025908
0.010258706
0.010257808
0.010256424
0.010254586
0.01025232
0.010249645
0.010246568
0.010243091
0.010239219
0.010234958
0.010230321
0.010225319
0.010219957
0.010214233
0.010208129
0.010201619
0.010194672
0.010187259
0.010179335
0.010170846
0.010161729
0.01015193
0.010141398
0.010130065
0.010117833
0.010104564
0.010090051
0.010074088
0.010056806
0.010039065
0.010025577
0.010015572
0.010008411
0.010003555
0.01000041
0.0099983907
0.0099976
0.0099990957
0.0099997917
0.020867833
0.01826126
0.012875533
0.011683088
0.010941287
0.010685542
0.01043967
0.010338052
0.010251741
0.010201671
0.010166058
0.010143382
0.010129535
0.010122426
0.010120398
0.010122227
0.010127
0.010133995
0.010142702
0.010152632
0.010163376
0.010174597
0.010186004
0.010197334
0.010208365
0.010218907
0.010228813
0.010237963
0.010246267
0.010253665
0.010260121
0.010265625
0.010270183
0.010273811
0.01027654
0.010278413
0.010279482
0.010279802
0.010279432
0.010278433
0.010276861
0.010274771
0.010272211
0.010269223
0.010265844
0.0102621
0.01025801
0.010253582
0.010248817
0.010243713
0.010238269
0.010232492
0.01022639
0.010219965
0.010213214
0.01020612
0.010198657
0.010190789
0.010182482
0.010173695
0.010164374
0.010154453
0.010143872
0.010132578
0.010120511
0.010107579
0.010093668
0.010078616
0.010062205
0.010044621
0.010028901
0.010017202
0.010008676
0.010002751
0.0099988742
0.0099964963
0.0099952892
0.0099952863
0.0099966244
0.0099966672
0.019733553
0.017812783
0.012528449
0.01150345
0.010839068
0.010618434
0.010403043
0.010315094
0.010242652
0.010201322
0.010173671
0.010157532
0.010149369
0.010147199
0.01014949
0.010155081
0.010163107
0.010172911
0.010183919
0.010195671
0.010207779
0.010219905
0.01023177
0.010243132
0.010253797
0.010263609
0.010272457
0.010280267
0.010286995
0.010292625
0.010297167
0.010300651
0.010303121
0.01030463
0.010305236
0.010305006
0.010304007
0.010302311
0.010299986
0.010297098
0.010293709
0.010289875
0.010285647
0.010281065
0.010276166
0.010270976
0.01026551
0.010259775
0.01025377
0.010247485
0.010240914
0.010234053
0.010226903
0.010219466
0.010211736
0.010203699
0.010195325
0.010186578
0.010177418
0.010167806
0.010157689
0.010147002
0.010135677
0.010123656
0.010110885
0.010097283
0.010082743
0.010067164
0.010050523
0.010033307
0.010019893
0.010009834
0.010002665
0.0099978927
0.0099949609
0.0099932655
0.0099926343
0.0099934027
0.0099953385
0.0099950926
0.018719805
0.017003125
0.012218346
0.011345458
0.010754283
0.010564469
0.010378455
0.010303384
0.010244374
0.010211903
0.010192189
0.010182643
0.010180163
0.01018288
0.01018936
0.010198506
0.010209474
0.01022161
0.010234373
0.010247305
0.010260032
0.010272245
0.0102837
0.010294201
0.010303607
0.010311822
0.010318792
0.010324502
0.010328969
0.010332229
0.010334338
0.010335368
0.010335397
0.010334505
0.010332774
0.010330283
0.010327113
0.010323338
0.01031903
0.010314255
0.010309072
0.010303536
0.010297692
0.010291579
0.010285229
0.010278662
0.010271894
0.010264925
0.010257752
0.010250361
0.010242736
0.010234864
0.010226739
0.010218355
0.010209707
0.010200781
0.010191549
0.010181973
0.01017201
0.010161618
0.010150747
0.010139339
0.010127318
0.010114615
0.010101181
0.010086948
0.010071823
0.010055738
0.010038928
0.01002354
0.010012006
0.010003463
0.009997513
0.0099937892
0.0099917613
0.0099907219
0.0099904762
0.0099917649
0.0099943527
0.0099947235
0.017813504
0.016065127
0.011947917
0.011209092
0.010686528
0.010524683
0.010366995
0.010304422
0.0102584
0.01023492
0.010223089
0.010220096
0.010223169
0.010230537
0.010240844
0.010253038
0.0102663
0.010279995
0.010293604
0.010306709
0.010318985
0.010330182
0.01034013
0.01034871
0.010355863
0.01036157
0.010365854
0.010368767
0.010370384
0.010370792
0.010370087
0.010368373
0.010365751
0.010362319
0.010358169
0.010353387
0.010348052
0.010342238
0.01033601
0.010329429
0.010322545
0.010315407
0.010308053
0.010300514
0.010292816
0.010284975
0.010277002
0.010268895
0.010260644
0.010252234
0.010243641
0.010234844
0.010225824
0.010216572
0.010207076
0.010197323
0.010187292
0.010176944
0.010166233
0.010155112
0.010143537
0.010131453
0.010118788
0.010105459
0.010091408
0.010076588
0.010060942
0.010044533
0.010027981
0.010015062
0.010005228
0.0099980547
0.0099931946
0.0099903932
0.0099891879
0.0099888085
0.0099889125
0.009990563
0.0099938715
0.0099961831
0.017003835
0.01529941
0.011717821
0.011094726
0.010636676
0.010500522
0.010370226
0.010319942
0.010286482
0.01027205
0.010267939
0.010271263
0.010279494
0.010290942
0.010304312
0.010318608
0.010333047
0.01034705
0.010360172
0.010372079
0.010382545
0.010391427
0.010398658
0.01040423
0.010408178
0.010410572
0.010411507
0.010411096
0.010409462
0.010406731
0.010403023
0.010398457
0.010393144
0.010387186
0.010380673
0.010373687
0.010366299
0.010358573
0.010350564
0.010342321
0.010333884
0.01032529
0.010316568
0.01030774
0.010298825
0.010289833
0.01028077
0.010271631
0.010262404
0.010253069
0.010243599
0.010233966
0.010224141
0.010214104
0.010203838
0.010193329
0.010182559
0.010171497
0.010160095
0.010148304
0.010136074
0.010123362
0.010110103
0.01009621
0.010081604
0.010066253
0.010050154
0.010033572
0.010018848
0.010007775
0.0099994923
0.0099935546
0.0099896754
0.0099876684
0.0099871468
0.0099873898
0.0099879767
0.0099900566
0.0099939343
0.0099970846
0.016281016
0.014614777
0.011523632
0.011003007
0.010605803
0.010493812
0.010389903
0.010351964
0.010330608
0.010325083
0.010328255
0.010337252
0.010349737
0.010364106
0.010379157
0.010393987
0.010407926
0.010420515
0.010431453
0.010440555
0.010447737
0.010452999
0.010456398
0.010458037
0.010458043
0.010456561
0.010453743
0.010449741
0.010444706
0.010438776
0.010432083
0.010424742
0.010416859
0.010408526
0.010399824
0.01039082
0.010381572
0.010372129
0.010362532
0.010352815
0.010343008
0.010333132
0.010323208
0.010313247
0.01030326
0.010293251
0.010283221
0.010273163
0.010263062
0.010252898
0.010242642
0.01023226
0.010221718
0.010210983
0.010200031
0.010188841
0.010177397
0.010165676
0.01015364
0.010141236
0.01012841
0.010115115
0.010101305
0.010086906
0.010071817
0.010056006
0.010039682
0.010023533
0.010011106
0.010001644
0.0099947126
0.0099898819
0.0099868946
0.0099855791
0.0099855806
0.0099862793
0.0099873857
0.009989894
0.0099940461
0.0099977548
0.015637742
0.014023337
0.011364265
0.010934828
0.010595076
0.010506957
0.010428347
0.010402892
0.010392942
0.010395657
0.01040502
0.010418263
0.010433258
0.010448563
0.010463155
0.010476332
0.010487634
0.010496808
0.010503757
0.010508486
0.010511077
0.010511667
0.010510429
0.010507552
0.010503229
0.010497648
0.010490987
0.010483413
0.010475076
0.010466111
0.010456635
0.01044675
0.010436544
0.010426092
0.010415455
0.010404685
0.010393821
0.010382896
0.010371934
0.010360957
0.010349978
0.010339009
0.010328057
0.010317126
0.010306217
0.01029533
0.010284458
0.010273593
0.01026272
0.010251819
0.01024086
0.01022981
0.01021863
0.010207281
0.010195726
0.010183936
0.01017189
0.010159569
0.010146948
0.010133984
0.010120621
0.010106798
0.010092471
0.010077604
0.010062128
0.010045952
0.010029445
0.010015369
0.010004615
0.0099965724
0.0099907981
0.0099869364
0.0099847524
0.009984051
0.009984467
0.009985486
0.0099870057
0.0099899536
0.0099942774
0.0099982922
0.01506791
0.013516231
0.011241194
0.010893051
0.010606437
0.010543401
0.010488522
0.010475173
0.010475126
0.010484313
0.010497624
0.010512547
0.010527291
0.010540719
0.010552133
0.010561143
0.010567584
0.010571455
0.010572885
0.010572054
0.010569188
0.010564525
0.010558309
0.010550772
0.010542129
0.010532576
0.010522286
0.010511411
0.01050008
0.010488407
0.010476485
0.010464391
0.010452191
0.010439934
0.010427663
0.010415409
0.010403194
0.010391035
0.010378942
0.010366919
0.010354971
0.010343095
0.010331288
0.010319548
0.010307866
0.010296234
0.010284645
0.010273084
0.010261537
0.010249983
0.010238398
0.010226749
0.010215
0.010203107
0.010191027
0.01017872
0.010166151
0.010153298
0.010140141
0.010126657
0.010112806
0.010098522
0.010083731
0.010068398
0.010052579
0.010036451
0.010020586
0.010008565
0.0099992943
0.0099924536
0.0099876586
0.0099846189
0.0099831295
0.0099829631
0.0099837217
0.009984966
0.0099867857
0.0099900894
0.0099945455
0.0099986708
0.014569827
0.013085958
0.01115651
0.010882523
0.010643998
0.010606889
0.010572957
0.010569846
0.010576672
0.010588967
0.01060259
0.010615525
0.010626507
0.010634872
0.010640346
0.010642908
0.010642696
0.010639945
0.01063495
0.010628015
0.010619439
0.010609503
0.010598461
0.010586542
0.010573941
0.010560829
0.010547349
0.010533618
0.010519736
0.010505782
0.010491821
0.010477902
0.010464066
0.010450339
0.010436742
0.010423289
0.010409986
0.010396834
0.01038383
0.010370969
0.01035824
0.010345634
0.010333138
0.010320739
0.010308425
0.01029618
0.010283991
0.010271842
0.010259716
0.010247594
0.010235454
0.010223267
0.010211001
0.010198618
0.010186073
0.010173319
0.01016031
0.010147009
0.010133385
0.010119422
0.010105105
0.010090403
0.010075249
0.010059545
0.01004328
0.010027
0.010013477
0.010002953
0.0099949887
0.009989174
0.0099852034
0.009982844
0.0099819192
0.009982187
0.0099832403
0.0099847014
0.0099867801
0.0099903229
0.0099948833
0.0099989587
0.014148521
0.012730912
0.011113214
0.010907829
0.010734753
0.010699496
0.010681538
0.010684447
0.010693214
0.010703744
0.010713079
0.010719919
0.010723669
0.010724197
0.010721645
0.010716304
0.010708531
0.010698701
0.01068718
0.010674305
0.010660372
0.01064564
0.010630327
0.010614615
0.010598656
0.010582573
0.010566466
0.010550412
0.010534474
0.010518698
0.010503118
0.010487758
0.010472634
0.010457755
0.010443123
0.010428735
0.010414583
0.010400657
0.010386944
0.010373428
0.010360091
0.010346914
0.010333877
0.010320961
0.010308145
0.01029541
0.010282737
0.010270106
0.010257497
0.010244892
0.010232267
0.0102196
0.010206865
0.010194028
0.010181053
0.010167897
0.010154511
0.010140844
0.01012685
0.01011249
0.010097742
0.010082604
0.010067088
0.01005122
0.010035101
0.010019367
0.01000761
0.0099984232
0.0099915468
0.0099866046
0.0099833291
0.0099815299
0.0099810438
0.0099816249
0.009982911
0.0099846072
0.0099869642
0.0099906465
0.009995169
0.0099990644
0.013815037
0.012452006
0.011115434
0.010967584
0.010841383
0.010818901
0.010809057
0.010811511
0.010815978
0.010819357
0.010819956
0.010817272
0.010811334
0.010802434
0.010790992
0.010777455
0.010762254
0.010745776
0.010728358
0.010710285
0.010691792
0.010673069
0.010654271
0.010635516
0.010616899
0.010598492
0.010580348
0.010562508
0.010544997
0.010527832
0.010511023
0.010494572
0.010478475
0.010462725
0.010447309
0.010432213
0.01041742
0.010402909
0.010388658
0.010374645
0.010360846
0.010347236
0.010333788
0.010320478
0.010307281
0.01029417
0.010281123
0.010268115
0.010255124
0.010242126
0.010229099
0.010216022
0.010202869
0.010189616
0.010176234
0.01016269
0.010148945
0.010134954
0.010120667
0.010106028
0.010090986
0.010075493
0.010059537
0.010043219
0.010027078
0.010013468
0.010002907
0.0099948374
0.0099888514
0.0099846276
0.0099819232
0.0099805762
0.00998043
0.0099812236
0.0099826473
0.0099845439
0.0099871851
0.0099910278
0.0099955077
0.0099992042
0.013592781
0.012251122
0.011165494
0.011067256
0.010975418
0.010954844
0.010944238
0.010939175
0.010933462
0.01092534
0.010914238
0.010900281
0.010883878
0.01086551
0.01084565
0.010824721
0.010803086
0.010781041
0.010758822
0.010736617
0.010714568
0.010692785
0.010671348
0.010650314
0.010629724
0.010609603
0.010589966
0.010570818
0.01055216
0.010533984
0.010516279
0.01049903
0.010482222
0.010465832
0.010449841
0.010434223
0.010418955
0.01040401
0.01038936
0.010374979
0.010360837
0.010346906
0.010333155
0.010319556
0.010306079
0.010292696
0.010279378
0.010266096
0.010252824
0.010239534
0.010226203
0.010212803
0.010199312
0.010185705
0.010171958
0.010158044
0.010143937
0.010129605
0.010115013
0.010100122
0.010084888
0.010069268
0.010053244
0.010036926
0.010021014
0.010008847
0.0099993019
0.009992098
0.0099868236
0.0099831765
0.0099809212
0.009979896
0.009979967
0.0099809599
0.0099824343
0.0099844435
0.0099872562
0.0099912074
0.0099957118
0.0099992685
0.013429161
0.012128328
0.01126509
0.011193196
0.011119645
0.011093448
0.011072851
0.011054411
0.011034698
0.011013097
0.010989678
0.0109648
0.0109389
0.01091238
0.010885581
0.010858774
0.010832169
0.010805925
0.010780156
0.010754942
0.010730337
0.010706375
0.010683074
0.010660439
0.010638467
0.010617147
0.010596466
0.010576405
0.010556941
0.010538052
0.010519712
0.010501896
0.010484577
0.010467725
0.010451314
0.010435314
0.010419695
0.010404427
0.01038948
0.010374823
0.010360425
0.010346254
0.010332281
0.010318472
0.010304796
0.010291222
0.010277718
0.010264253
0.010250796
0.010237317
0.010223786
0.010210174
0.010196452
0.010182594
0.010168572
0.010154362
0.010139937
0.010125273
0.010110345
0.010095126
0.010079591
0.010063722
0.010047556
0.010031385
0.010016638
0.010005409
0.0099966622
0.0099901073
0.0099853766
0.009982191
0.0099803211
0.0099795555
0.00997958
0.0099808114
0.0099823185
0.0099843798
0.0099871949
0.0099909991
0.0099953403
0.0099989688
0.013357042
0.012082152
0.011415354
0.011328533
0.01125777
0.011216597
0.011180346
0.011146126
0.011112137
0.01107811
0.011044143
0.01101044
0.010977212
0.010944628
0.010912816
0.010881862
0.010851818
0.01082271
0.010794547
0.010767324
0.010741022
0.010715619
0.010691086
0.010667393
0.010644505
0.010622387
0.010601006
0.010580326
0.010560313
0.010540932
0.010522148
0.010503929
0.010486241
0.010469052
0.010452329
0.01043604
0.010420152
0.010404634
0.010389454
0.010374579
0.010359978
0.010345618
0.010331468
0.010317495
0.010303668
0.010289954
0.010276321
0.010262737
0.010249168
0.010235583
0.010221947
0.01020823
0.010194398
0.010180419
0.010166262
0.010151895
0.010137289
0.010122415
0.010107247
0.010091762
0.010075945
0.010059803
0.010043435
0.010027331
0.010013641
0.010003058
0.009994882
0.0099887765
0.0099844082
0.009981516
0.0099798901
0.0099793507
0.0099796683
0.0099807403
0.0099823564
0.009984495
0.0099873182
0.009990932
0.0099950017
0.009998646
0.013347735
0.012054723
0.011554911
0.01144946
0.011367499
0.011309065
0.011257116
0.011209262
0.011163964
0.011120722
0.011079309
0.011039609
0.011001547
0.010965056
0.010930073
0.010896532
0.010864364
0.010833503
0.010803882
0.010775437
0.010748106
0.010721827
0.010696544
0.010672201
0.010648747
0.010626131
0.010604307
0.01058323
0.010562857
0.010543147
0.010524061
0.010505562
0.010487612
0.010470176
0.01045322
0.01043671
0.010420613
0.010404894
0.010389524
0.010374468
0.010359695
0.010345174
0.010330872
0.010316758
0.010302801
0.010288969
0.010275231
0.010261555
0.010247909
0.01023426
0.010220577
0.010206826
0.010192973
0.010178984
0.010164825
0.01015046
0.010135854
0.010120971
0.010105774
0.010090231
0.010074315
0.010058027
0.010041486
0.010025305
0.010012129
0.010001883
0.0099940039
0.009988144
0.0099839803
0.009981257
0.0099797706
0.009979303
0.0099796959
0.009980796
0.0099824638
0.0099846698
0.0099874791
0.0099909114
0.0099947313
0.009998395
0.013407024
0.012073559
0.011654529
0.011532747
0.0114382
0.011366077
0.011303071
0.011246346
0.011194076
0.011145374
0.011099675
0.0110566
0.01101586
0.010977232
0.010940528
0.010905589
0.010872278
0.010840472
0.010810065
0.010780958
0.010753064
0.010726303
0.010700602
0.010675893
0.010652114
0.010629207
0.010607119
0.010585799
0.010565201
0.01054528
0.010525994
0.010507303
0.01048917
0.010471557
0.010454428
0.010437749
0.010421486
0.010405606
0.010390076
0.010374865
0.010359939
0.010345269
0.010330824
0.010316571
0.010302481
0.010288523
0.010274667
0.010260883
0.01024714
0.010233409
0.010219657
0.010205855
0.010191972
0.010177976
0.010163835
0.010149518
0.010134991
0.010120221
0.010105175
0.010089821
0.010074134
0.010058109
0.010041846
0.010025862
0.010012445
0.010002107
0.0099941521
0.0099882497
0.0099840655
0.0099813362
0.0099798413
0.0099793619
0.0099797614
0.0099808655
0.0099825697
0.0099848211
0.009987611
0.0099908998
0.0099945316
0.0099982264
0.013503754
0.01211715
0.011703606
0.011572975
0.011470274
0.011392003
0.011324199
0.011263973
0.011209059
0.011158365
0.011111142
0.011066885
0.011025219
0.010985852
0.01094855
0.010913119
0.010879395
0.010847238
0.010816523
0.010787144
0.010759003
0.010732016
0.010706102
0.010681192
0.01065722
0.010634126
0.010611855
0.010590355
0.010569579
0.01054948
0.010530017
0.010511149
0.010492838
0.010475046
0.010457738
0.010440879
0.010424434
0.010408372
0.010392659
0.010377264
0.010362155
0.0103473
0.010332669
0.010318231
0.010303956
0.010289814
0.010275774
0.010261806
0.01024788
0.010233967
0.010220035
0.010206056
0.010191997
0.010177828
0.010163519
0.010149037
0.010134351
0.010119428
0.010104235
0.010088744
0.010072929
0.010056796
0.010040466
0.010024552
0.010011716
0.010001666
0.0099939316
0.0099881624
0.0099840565
0.0099813638
0.0099798737
0.0099793886
0.0099797677
0.0099808623
0.0099825764
0.0099848456
0.0099876239
0.0099908457
0.0099943957
0.0099981307
92.452838
453.91075
141.5521
12.286702
0.27177174
0.021630912
0.020628847
0.020016785
0.019329909
0.018150077
0.016929683
0.015863875
0.015012248
0.014449398
0.014050711
0.013678025
0.01331208
0.012982982
0.012704604
0.01247152
0.012273619
0.012103077
0.011954642
0.011824493
0.011709597
0.011607479
0.011516151
0.011434026
0.011359854
0.011292651
0.011231599
0.011175986
0.011125194
0.0110787