/*--------------------------------*- C++ -*----------------------------------*\
| =========                 |                                                 |
| \\      /  F ield         | OpenFOAM: The Open Source CFD Toolbox           |
|  \\    /   O peration     | Version:  2512                                  |
|   \\  /    A nd           | Website:  www.openfoam.com                      |
|    \\/     M anipulation  |                                                 |
\*---------------------------------------------------------------------------*/
FoamFile
{
    version     2.0;
    format      ascii;
    arch        "LSB;label=32;scalar=64";
    class       volScalarField;
    location    "0.148";
    object      Ma;
}
// * * * * * * * * * * * * * * * * * * * * * * * * * * * * * * * * * * * * * //

dimensions      [0 0 0 0 0 0 0];

internalField   nonuniform List<scalar> 
16000
(
0.6257771
0.74353793
0.69816544
0.72341269
0.70797797
0.715333
0.70946285
0.71117799
0.70849318
0.7081412
0.70652311
0.70543612
0.70404274
0.70269208
0.70125193
0.69976518
0.69821825
0.69661373
0.69495027
0.69322753
0.6914452
0.68960316
0.68770157
0.68574081
0.6837216
0.68164496
0.67951229
0.67732535
0.67508632
0.67279778
0.67046276
0.66808468
0.66566745
0.66321537
0.66073314
0.65822586
0.65569897
0.65315821
0.65060955
0.64805917
0.64551335
0.64297842
0.64046066
0.63796627
0.63550122
0.63307124
0.63068173
0.62833768
0.62604366
0.62380371
0.62162139
0.61949968
0.61744101
0.61544724
0.61351963
0.61165884
0.60986495
0.60813747
0.60647533
0.60487684
0.60333967
0.60186123
0.60043858
0.59906808
0.59774523
0.5964646
0.59521982
0.59400402
0.59281028
0.59163179
0.59046131
0.58929049
0.58811042
0.58691439
0.58570012
0.58447378
0.58312962
0.58218285
0.57996962
0.58010179
0.63024184
0.74874956
0.70153876
0.72806698
0.71178334
0.71962994
0.71328922
0.71513789
0.71226202
0.71184086
0.71013469
0.70893052
0.70744646
0.70598026
0.70443142
0.70282728
0.70116066
0.69943201
0.69764079
0.69578667
0.69386959
0.69188974
0.68984758
0.68774391
0.68557989
0.68335703
0.68107727
0.67874299
0.67635699
0.67392255
0.67144342
0.66892379
0.66636833
0.66378215
0.66117074
0.65853996
0.65589601
0.65324531
0.65059448
0.64795022
0.64531927
0.64270829
0.6401238
0.63757206
0.63505903
0.63259027
0.63017086
0.62780541
0.62549797
0.62325199
0.62107036
0.61895534
0.61690861
0.61493127
0.61302381
0.61118619
0.60941776
0.6077174
0.60608343
0.60451365
0.60300529
0.60155527
0.60016033
0.59881662
0.59751954
0.59626357
0.59504228
0.59384861
0.59267541
0.5915157
0.59036219
0.58920648
0.58803953
0.58685463
0.58564794
0.58440976
0.58315286
0.58196571
0.58022471
0.57978643
0.63443426
0.75351082
0.7051395
0.7320855
0.71537382
0.72330864
0.71682327
0.71854872
0.7156257
0.71504221
0.71327067
0.711926
0.710338
0.7087437
0.70706974
0.70533367
0.70353129
0.70166269
0.69972761
0.69772603
0.69565823
0.69352479
0.69132662
0.689065
0.68674165
0.6843587
0.68191876
0.67942494
0.67688083
0.67429057
0.67165879
0.66899062
0.66629169
0.66356803
0.6608261
0.65807266
0.65531474
0.65255953
0.64981431
0.64708635
0.64438277
0.6417105
0.63907616
0.63648596
0.63394562
0.63146034
0.62903471
0.62667267
0.62437752
0.62215189
0.61999776
0.61791646
0.61590871
0.61397464
0.61211383
0.61032533
0.60860769
0.606959
0.6053769
0.60385861
0.6024008
0.60099997
0.59965245
0.59835413
0.59710027
0.5958853
0.59470277
0.59354554
0.59240633
0.59127807
0.59015349
0.58902437
0.58788182
0.58671854
0.58552891
0.58430888
0.58308176
0.58181354
0.58029524
0.5795708
0.63823517
0.75783557
0.70814098
0.73554422
0.71847839
0.72652571
0.71987697
0.72147019
0.71848512
0.71772392
0.71587219
0.71437203
0.71266291
0.71092524
0.70910969
0.70722591
0.70527212
0.70324821
0.7011543
0.69899068
0.69675803
0.69445735
0.69209007
0.68965807
0.68716371
0.68460989
0.68200007
0.67933824
0.67662902
0.67387756
0.67108961
0.6682714
0.66542967
0.66257157
0.65970459
0.65683647
0.65397511
0.65112846
0.64830438
0.64551058
0.64275444
0.64004294
0.63738258
0.63477923
0.63223815
0.62976386
0.62736014
0.62503003
0.6227758
0.620599
0.61850048
0.61648044
0.61453846
0.6126736
0.61088439
0.60916893
0.60752488
0.60594954
0.60443986
0.60299244
0.60160347
0.600269
0.59898501
0.59774717
0.59655063
0.59538983
0.59425834
0.59314902
0.59205453
0.59096772
0.58988142
0.58878767
0.58767769
0.58654336
0.58537885
0.58418612
0.58297698
0.58169083
0.58031706
0.57938991
0.64164026
0.76166783
0.71089189
0.73847695
0.7209679
0.72916827
0.72241108
0.72380955
0.72078138
0.71980843
0.71786761
0.71619455
0.7143464
0.71245041
0.71047668
0.70842957
0.70630854
0.70411355
0.70184499
0.69950351
0.69709025
0.69460676
0.69205517
0.68943813
0.68675894
0.68402149
0.68123035
0.67839073
0.6755085
0.67259013
0.6696427
0.66667379
0.66369143
0.66070399
0.65772011
0.65474853
0.65179798
0.64887707
0.64599411
0.64315703
0.64037321
0.6376494
0.63499164
0.63240515
0.62989433
0.62746269
0.62511288
0.62284668
0.62066507
0.61856826
0.61655576
0.61462643
0.61277861
0.61101015
0.60931848
0.6077007
0.60615359
0.60467364
0.60325713
0.6019001
0.60059829
0.59934737
0.59814301
0.5969807
0.59585554
0.59476202
0.59369383
0.59264391
0.59160495
0.59056979
0.58953142
0.58848224
0.58741354
0.58631666
0.58518682
0.5840284
0.58284033
0.58157106
0.58028471
0.57924032
0.64461178
0.7649308
0.71318212
0.7409307
0.72313739
0.73116924
0.72429251
0.72550355
0.72242337
0.72123259
0.71919201
0.71733559
0.7153324
0.7132651
0.7111176
0.70889117
0.70658593
0.70420215
0.70174067
0.69920276
0.69659031
0.69390577
0.69115226
0.6883336
0.68545433
0.68251974
0.67953586
0.67650943
0.6734479
0.67035934
0.6672524
0.66413619
0.66102018
0.65791402
0.65482748
0.65177021
0.64875164
0.64578079
0.64286613
0.64001547
0.63723579
0.6345332
0.63191283
0.6293788
0.62693424
0.62458122
0.6223209
0.62015349
0.61807837
0.6160942
0.61419895
0.61239007
0.61066454
0.60901899
0.60744974
0.60595292
0.60452446
0.60316014
0.60185566
0.60060656
0.59940824
0.59825606
0.59714548
0.59607189
0.59503041
0.59401565
0.59302149
0.59204107
0.59106716
0.59009268
0.58911086
0.58811446
0.58709486
0.58604333
0.58495629
0.58383769
0.58267856
0.58144473
0.58022676
0.57909223
0.64713892
0.76761771
0.71503157
0.74288388
0.72484101
0.73250764
0.72570286
0.7265359
0.72347343
0.72198469
0.71982606
0.71777425
0.71559491
0.71333678
0.71099293
0.70856367
0.70604981
0.70345239
0.70077311
0.69801426
0.69517886
0.69227064
0.68929415
0.68625474
0.68315864
0.68001288
0.67682534
0.67360465
0.67036014
0.66710176
0.66383991
0.66058536
0.65734901
0.65414178
0.6509744
0.6478572
0.64479997
0.64181175
0.63890072
0.63607402
0.63333773
0.63069672
0.62815469
0.62571415
0.62337643
0.6211418
0.6190095
0.6169779
0.61504456
0.6132064
0.61145979
0.60980071
0.60822478
0.60672746
0.60530404
0.60394978
0.60265987
0.60142952
0.60025395
0.59912837
0.59804792
0.5970078
0.59600338
0.59503002
0.59408293
0.59315693
0.59224619
0.59134413
0.59044371
0.58953803
0.58862056
0.58768443
0.58672123
0.58572263
0.58468589
0.58361244
0.58249
0.58130547
0.58014568
0.57894486
0.64925915
0.76975482
0.71647331
0.74437323
0.72612628
0.73349824
0.7265705
0.72732466
0.72381014
0.72207442
0.71976312
0.71748895
0.71509819
0.71261685
0.71004326
0.70737816
0.70462315
0.70178034
0.69885261
0.69584358
0.6927578
0.68960067
0.6863786
0.68309893
0.67976998
0.676401
0.6730021
0.66958414
0.66615864
0.66273758
0.65933324
0.65595801
0.65262412
0.6493435
0.64612748
0.64298662
0.63993052
0.63696761
0.6341051
0.6313488
0.62870314
0.62617112
0.62375436
0.62145318
0.61926668
0.61719288
0.61522885
0.61337086
0.61161456
0.60995508
0.60838719
0.60690544
0.60550426
0.60417804
0.60292123
0.60172835
0.60059408
0.5995132
0.59848064
0.59749143
0.59654062
0.59562339
0.59473512
0.59387127
0.59302722
0.59219809
0.5913784
0.59056196
0.58974202
0.58891191
0.58806543
0.587196
0.5862956
0.58535677
0.5843768
0.58335329
0.5822748
0.58115037
0.58004539
0.57879203
0.65103214
0.7713616
0.71744447
0.74538475
0.72671538
0.73341141
0.72661893
0.72656609
0.7235077
0.72144203
0.71892873
0.71639653
0.71375247
0.71100909
0.70816716
0.70522842
0.70219549
0.69907185
0.69586195
0.69257124
0.68920625
0.68577465
0.68228525
0.67874793
0.67517367
0.67157439
0.66796285
0.66435247
0.6607571
0.65719085
0.6536678
0.6502017
0.64680579
0.64349245
0.64027298
0.63715741
0.63415431
0.63127066
0.62851176
0.62588124
0.62338106
0.62101161
0.6187718
0.61665923
0.61467039
0.61280076
0.61104509
0.6093975
0.60785172
0.60640121
0.60503929
0.6037593
0.60255464
0.60141891
0.60034592
0.59932973
0.59836471
0.59744543
0.59656674
0.59572366
0.59491133
0.59412505
0.59336036
0.59261289
0.59187832
0.59115211
0.59042922
0.58970392
0.58896988
0.58822077
0.58745062
0.58665316
0.58582105
0.58494795
0.58403018
0.58306093
0.58203364
0.58097818
0.57992518
0.5786326
0.65244357
0.77240396
0.71787186
0.74565821
0.72658439
0.73288253
0.72615504
0.72565523
0.72237878
0.71996641
0.71720215
0.71437591
0.71143584
0.70838869
0.70523664
0.70198309
0.69863232
0.6951898
0.69166223
0.68805756
0.68438512
0.68065552
0.67688071
0.67307381
0.669249
0.66542136
0.66160664
0.65782097
0.65408059
0.65040153
0.64679926
0.64328838
0.63988231
0.63659299
0.63343069
0.63040378
0.62751865
0.62477966
0.62218918
0.61974766
0.61745377
0.61530459
0.61329582
0.61142202
0.6096768
0.60805309
0.60654333
0.60513964
0.60383405
0.60261859
0.60148544
0.60042703
0.59943607
0.59850566
0.59762927
0.5968008
0.59601452
0.59526508
0.59454743
0.59385678
0.59318854
0.59253825
0.59190175
0.59127497
0.59065391
0.59003446
0.58941209
0.58878161
0.58813719
0.5874729
0.586783
0.5860615
0.58530208
0.58449954
0.58364823
0.58273698
0.58176767
0.58078751
0.57978423
0.5784668
0.65342859
0.77277093
0.71768194
0.74441658
0.72571278
0.73140984
0.72482211
0.72369857
0.7203328
0.71753798
0.71446506
0.71129934
0.70801374
0.70461417
0.70110434
0.69748992
0.69377765
0.68997581
0.6860943
0.68214451
0.67813947
0.67409369
0.67002305
0.66594456
0.66187621
0.65783656
0.65384449
0.64991873
0.64607754
0.64233821
0.63871677
0.63522751
0.63188277
0.62869263
0.6256648
0.62280451
0.62011459
0.6175955
0.61524558
0.6130612
0.6110371
0.6091666
0.60744194
0.60585454
0.60439525
0.60305463
0.60182311
0.60069119
0.59964958
0.59868931
0.59780182
0.59697902
0.59621335
0.59549774
0.59482568
0.59419117
0.59358868
0.59301313
0.5924598
0.59192428
0.59140237
0.59089002
0.59038346
0.589879
0.58937307
0.58886199
0.5883418
0.58780789
0.58725506
0.58667781
0.58607058
0.5854277
0.58474416
0.58401574
0.58323384
0.58238397
0.58147886
0.58057702
0.57962043
0.57829586
0.65390553
0.77231956
0.716771
0.74259059
0.72429478
0.72907543
0.72255405
0.72083486
0.71723578
0.71402153
0.71057492
0.70701434
0.7033262
0.69951841
0.69559709
0.69157112
0.68745087
0.68324869
0.67897884
0.67465742
0.6703023
0.66593283
0.66156966
0.65723432
0.65294887
0.64873541
0.64461558
0.64061008
0.6367381
0.63301688
0.6294613
0.62608355
0.62289292
0.61989566
0.61709509
0.61449162
0.61208306
0.60986484
0.60783041
0.60597151
0.60427864
0.60274132
0.60134849
0.60008872
0.59895055
0.59792264
0.59699395
0.5961539
0.59539244
0.59470013
0.59406815
0.59348839
0.59295337
0.59245626
0.59199086
0.59155157
0.5911333
0.59073146
0.59034185
0.58996055
0.5895839
0.58920839
0.58883072
0.58844766
0.58805608
0.5876528
0.5872344
0.58679695
0.58633592
0.58584627
0.58532258
0.58475966
0.58415393
0.58350167
0.58279083
0.58200559
0.58117055
0.58034706
0.57943186
0.57812076
0.65382387
0.7709818
0.71501611
0.73995665
0.72193251
0.72570717
0.71924436
0.7168453
0.71294321
0.70925708
0.70536281
0.70133997
0.69718262
0.69290255
0.6885099
0.68401829
0.67944335
0.67480307
0.67011767
0.6654093
0.66070184
0.65602045
0.65139111
0.64684009
0.6423933
0.63807562
0.63391027
0.62991816
0.62611735
0.6225226
0.61914508
0.61599227
0.61306793
0.61037231
0.6079024
0.60565234
0.60361384
0.6017766
0.60012887
0.59865778
0.59734984
0.59619125
0.59516821
0.59426718
0.59347506
0.59277938
0.59216835
0.59163099
0.59115711
0.59073736
0.5903632
0.59002691
0.58972151
0.58944074
0.58917901
0.58893134
0.58869331
0.58846096
0.58823076
0.58799941
0.58776388
0.58752127
0.58726883
0.58700384
0.58672364
0.58642554
0.58610667
0.5857638
0.58539309
0.58498997
0.58454924
0.58406634
0.58353901
0.58296329
0.58232393
0.58160658
0.58084732
0.58009989
0.57921738
0.57794544
0.65316265
0.76865474
0.71235655
0.73626607
0.71855015
0.72120971
0.71471945
0.71159704
0.70727475
0.70304562
0.6986173
0.69405121
0.68934768
0.68452421
0.67959728
0.6745873
0.66951722
0.6644126
0.65930125
0.65421278
0.6491781
0.64422868
0.63939581
0.6347097
0.63019868
0.62588829
0.62180055
0.61795343
0.6143604
0.61103026
0.60796721
0.60517106
0.6026376
0.60035914
0.59832502
0.59652228
0.59493623
0.59355099
0.59235001
0.59131655
0.59043397
0.58968609
0.58905737
0.58853313
0.58809959
0.587744
0.58745463
0.58722079
0.5870328
0.58688194
0.58676041
0.58666127
0.58657839
0.58650635
0.58644038
0.58637632
0.58631055
0.58623989
0.58616153
0.5860729
0.58597162
0.5858555
0.58572234
0.58556997
0.58539623
0.58519888
0.5849756
0.58472383
0.58444042
0.58412129
0.58376159
0.58335758
0.58290788
0.58240743
0.58183885
0.58119274
0.58051427
0.57983864
0.57898023
0.57776873
0.65184915
0.76515303
0.70875256
0.73137506
0.71398018
0.71539582
0.70877801
0.70486166
0.69999343
0.69512795
0.69006567
0.68486329
0.67952956
0.67409016
0.66857072
0.66300102
0.65741368
0.65184384
0.64632856
0.64090594
0.63561416
0.63049029
0.6255692
0.62088237
0.61645689
0.61231469
0.60847199
0.60493911
0.60172053
0.59881521
0.59621714
0.59391601
0.591898
0.59014656
0.58864318
0.58736812
0.58630102
0.58542145
0.58470935
0.58414534
0.58371102
0.58338912
0.58316359
0.58301969
0.58294399
0.58292434
0.5829498
0.58301065
0.58309824
0.58320494
0.58332407
0.58344977
0.58357699
0.58370135
0.58381906
0.58392689
0.5840221
0.58410234
0.58416557
0.58420999
0.58423391
0.5842358
0.5842141
0.58416718
0.58409335
0.58399083
0.58385782
0.58369234
0.58349188
0.58325288
0.58297112
0.58264381
0.58226968
0.58184172
0.58134239
0.58077075
0.58017696
0.57956688
0.57872574
0.57759227
0.64982227
0.76023077
0.70429829
0.72510937
0.70804609
0.70804833
0.70115355
0.69635087
0.69078651
0.68516774
0.67935936
0.6734218
0.66737589
0.6612585
0.65510763
0.64896541
0.6428767
0.63688812
0.63104677
0.62539873
0.61998742
0.61485202
0.61002613
0.6055367
0.60140328
0.59763783
0.59424481
0.59122171
0.58855981
0.58624511
0.58425944
0.58258143
0.58118762
0.58005325
0.57915318
0.57846241
0.5779567
0.57761287
0.57740913
0.57732522
0.57734253
0.57744409
0.57761461
0.57784036
0.57810914
0.57841014
0.5787339
0.5790721
0.57941758
0.5797641
0.58010634
0.58043973
0.58076043
0.58106518
0.58135127
0.58161645
0.58185887
0.58207701
0.58226962
0.58243562
0.58257404
0.582684
0.58276453
0.58281456
0.58283286
0.58281813
0.58276898
0.58268395
0.58256104
0.5823973
0.58218946
0.58193564
0.58163385
0.58127459
0.58084243
0.58034782
0.57984123
0.57929054
0.57846228
0.57742075
0.64701992
0.75352014
0.69867712
0.71721284
0.7004295
0.69883413
0.69147021
0.6856593
0.67923603
0.67273424
0.66606703
0.65930396
0.65248294
0.64565637
0.63887875
0.63220793
0.62570285
0.61942151
0.61341874
0.60774398
0.60243932
0.59753808
0.59306391
0.58903043
0.5854416
0.58229244
0.57957018
0.57725562
0.57532453
0.57374912
0.57249935
0.57154408
0.57085205
0.57039265
0.57013652
0.57005597
0.57012525
0.57032069
0.57062077
0.57100612
0.57145942
0.57196531
0.57251027
0.57308248
0.57367164
0.57426887
0.57486655
0.57545815
0.57603818
0.576602
0.57714575
0.57766624
0.57816086
0.57862752
0.57906456
0.57947069
0.57984493
0.58018657
0.58049508
0.58077009
0.58101129
0.5812184
0.58139103
0.58152865
0.58163051
0.58169572
0.58172331
0.58171217
0.58166069
0.58156662
0.58142791
0.58124348
0.58100986
0.58071512
0.58034799
0.57993129
0.57951167
0.57901685
0.57820491
0.57725065
0.64332882
0.74447381
0.69144511
0.70725556
0.6906919
0.68728626
0.67922524
0.67226926
0.66482249
0.65730872
0.64968468
0.64203569
0.63442399
0.62692341
0.61960866
0.61255405
0.60582993
0.59949954
0.59361634
0.58822191
0.58334486
0.57900048
0.57519133
0.57190846
0.56913307
0.5668385
0.5649922
0.56355766
0.56249618
0.56176834
0.56133517
0.56115911
0.56120461
0.56143861
0.56183077
0.56235358
0.56298232
0.563695
0.56447222
0.56529696
0.56615443
0.56703183
0.56791816
0.56880406
0.56968157
0.57054402
0.57138584
0.57220244
0.57299006
0.57374569
0.57446693
0.57515194
0.57579932
0.57640808
0.57697755
0.57750734
0.57799729
0.5784474
0.57885782
0.57922878
0.57956059
0.57985351
0.58010771
0.58032313
0.58049951
0.5806364
0.58073317
0.58078894
0.58080241
0.58077207
0.58069715
0.58057709
0.5804067
0.58017254
0.57986889
0.57952872
0.57919048
0.57874797
0.5779635
0.57708126
0.63850097
0.73287942
0.68207604
0.69467153
0.67824657
0.67283102
0.6638026
0.65554669
0.64691839
0.63828376
0.62965117
0.62113117
0.61281698
0.60480629
0.59719082
0.59005295
0.58346154
0.57746911
0.57211036
0.56740203
0.56334385
0.55992056
0.5571044
0.554858
0.55313721
0.5518937
0.5510773
0.55063785
0.55052663
0.55069747
0.55110738
0.55171699
0.55249071
0.55339672
0.55440686
0.55549643
0.55664391
0.55783069
0.55904082
0.56026068
0.56147875
0.56268533
0.56387233
0.56503309
0.56616215
0.56725509
0.56830842
0.56931943
0.57028606
0.57120683
0.57208071
0.5729071
0.57368573
0.57441658
0.57509989
0.57573606
0.57632564
0.57686928
0.57736772
0.57782171
0.57823208
0.57859958
0.57892483
0.57920826
0.57945008
0.57965026
0.57980849
0.57992408
0.57999596
0.58002337
0.58000657
0.5799451
0.57983237
0.57965523
0.57941425
0.57914761
0.57887996
0.5784813
0.57773413
0.57693929
0.63216309
0.71987387
0.67007154
0.67883775
0.66235571
0.65473186
0.64442005
0.63469619
0.62477083
0.61498915
0.60542293
0.5962128
0.58747874
0.57933061
0.57185851
0.56512977
0.55918677
0.55404707
0.54970529
0.5461362
0.5432987
0.54113999
0.53959961
0.53861309
0.53811495
0.53804108
0.53833044
0.53892623
0.53977656
0.54083469
0.54205913
0.54341339
0.54486567
0.54638857
0.54795855
0.54955562
0.55116287
0.55276613
0.55435359
0.55591551
0.55744392
0.55893238
0.56037575
0.56177003
0.56311215
0.56439985
0.56563158
0.56680633
0.56792357
0.56898321
0.56998544
0.57093074
0.57181981
0.5726535
0.57343281
0.57415883
0.57483272
0.57545566
0.5760289
0.57655364
0.57703111
0.57746247
0.57784873
0.57819077
0.57848922
0.57874447
0.57895653
0.57912491
0.57924885
0.57932822
0.57936381
0.57935476
0.57929368
0.57916994
0.57899078
0.57879421
0.57858567
0.57822019
0.57751605
0.57682728
0.62395951
0.70283928
0.65461875
0.65887022
0.64197415
0.63193868
0.62005635
0.60877103
0.59759097
0.58685386
0.57668965
0.56725384
0.55866551
0.55101293
0.54434821
0.53868875
0.53402026
0.53030194
0.52747259
0.52545694
0.52417142
0.52352926
0.52344446
0.5238347
0.52462333
0.52574051
0.52712374
0.52871789
0.53047491
0.53235339
0.53431796
0.53633861
0.53839012
0.54045145
0.54250512
0.54453681
0.54653479
0.54848965
0.55039387
0.55224156
0.55402819
0.55575041
0.55740581
0.5589928
0.56051048
0.56195849
0.56333694
0.56464633
0.56588745
0.56706135
0.56816927
0.56921261
0.57019287
0.57111162
0.57197051
0.57277119
0.57351531
0.57420451
0.57484043
0.57542465
0.57595871
0.57644409
0.57688214
0.57727407
0.57762092
0.57792345
0.57818199
0.57839636
0.57856626
0.57869206
0.57877453
0.57881184
0.57879653
0.57872216
0.5786025
0.57847164
0.57831352
0.57797433
0.57731851
0.57675548
0.61326086
0.68084552
0.63430117
0.63338156
0.61564842
0.60309519
0.58957713
0.57691134
0.56486709
0.55375453
0.54371731
0.53487776
0.52730015
0.52100018
0.51594855
0.51207998
0.50930267
0.50750808
0.50657942
0.50639877
0.50685227
0.50783374
0.5092467
0.51100541
0.51303492
0.51527066
0.51765765
0.52014953
0.52270761
0.52529979
0.52789968
0.53048578
0.53304067
0.5355504
0.53800391
0.5403926
0.54270984
0.5449507
0.54711163
0.54919022
0.55118503
0.55309538
0.55492121
0.55666302
0.55832169
0.55989846
0.56139483
0.56281253
0.56415343
0.56541952
0.56661288
0.56773563
0.56878994
0.56977797
0.57070185
0.57156371
0.57236558
0.57310947
0.57379733
0.57443103
0.57501238
0.57554307
0.5760247
0.57645877
0.57684661
0.57718929
0.57748747
0.57774139
0.57795138
0.57811821
0.57824226
0.57832055
0.5783461
0.57831708
0.57825223
0.57817972
0.5780663
0.57775989
0.57716754
0.5767075
0.59890845
0.65181693
0.60725654
0.60065089
0.58180622
0.56687019
0.55214851
0.53881834
0.52683649
0.51642527
0.50765528
0.50054074
0.49502677
0.49100926
0.48834885
0.48688667
0.48645707
0.48689776
0.48805661
0.48979582
0.49199382
0.49454556
0.49736179
0.50036772
0.5035014
0.50671203
0.50995829
0.51320688
0.51643122
0.51961024
0.52272746
0.52577016
0.52872866
0.53159581
0.5343665
0.53703724
0.53960592
0.54207148
0.54443375
0.54669325
0.54885106
0.55090869
0.55286801
0.55473117
0.5565005
0.5581785
0.55976777
0.56127098
0.56269086
0.56403013
0.56529151
0.56647772
0.5675914
0.56863517
0.56961157
0.57052306
0.571372
0.57216066
0.57289125
0.57356588
0.57418651
0.57475505
0.57527326
0.57574282
0.57616527
0.5765419
0.57687364
0.57716125
0.57740568
0.57760808
0.57776836
0.57788289
0.57794582
0.57795923
0.57794356
0.57791894
0.5778419
0.5775761
0.5770661
0.57668299
0.57902889
0.61344772
0.57133102
0.5589443
0.53950631
0.52261123
0.50785145
0.49529036
0.48489084
0.47669415
0.47059648
0.46643272
0.46398657
0.46302041
0.4632943
0.46458096
0.46667461
0.46939517
0.47258923
0.47612875
0.47990862
0.48384372
0.48786589
0.49192112
0.49596702
0.49997065
0.50390671
0.50775603
0.51150433
0.51514124
0.51865948
0.52205423
0.52532262
0.52846328
0.53147606
0.53436175
0.53712184
0.5397584
0.54227394
0.54467125
0.54695339
0.54912358
0.55118516
0.55314151
0.55499609
0.55675232
0.55841365
0.55998345
0.56146509
0.56286183
0.56417688
0.56541337
0.56657433
0.5676627
0.56868133
0.56963293
0.57052011
0.57134535
0.57211106
0.5728195
0.5734728
0.57407298
0.57462197
0.57512155
0.57557337
0.57597884
0.57633914
0.57665544
0.5769292
0.57716176
0.57735277
0.57749874
0.57759592
0.57764957
0.57767887
0.57769399
0.57764425
0.57741397
0.57698932
0.57672649
0.55108361
0.56330285
0.52523564
0.50696574
0.48642272
0.4710992
0.45827032
0.44854684
0.44165397
0.43734444
0.43526502
0.43504858
0.43633553
0.43879951
0.44215716
0.44617125
0.45064831
0.45543385
0.46040649
0.46547221
0.47055899
0.47561238
0.48059169
0.48546699
0.49021668
0.4948256
0.49928352
0.50358402
0.50772357
0.51170081
0.51551609
0.51917098
0.52266798
0.52601028
0.52920156
0.53224584
0.53514737
0.53791055
0.54053988
0.54303984
0.54541495
0.54766965
0.54980835
0.55183535
0.55375489
0.55557108
0.55728794
0.55890939
0.5604392
0.56188104
0.56323848
0.56451492
0.56571368
0.56683793
0.56789072
0.56887497
0.56979344
0.5706488
0.57144359
0.5721802
0.57286089
0.57348779
0.57406293
0.57458817
0.57506523
0.57549559
0.57588061
0.57622176
0.57652071
0.57677873
0.57699535
0.5771679
0.57729517
0.57738479
0.57745328
0.57750249
0.57748068
0.5772951
0.57695775
0.57677511
0.51099928
0.4987876
0.46173525
0.44401343
0.42675228
0.41471929
0.40657323
0.40210193
0.40063692
0.40158919
0.40438749
0.40854605
0.41366502
0.4194291
0.42559589
0.43198305
0.43845572
0.44491575
0.45129276
0.45753727
0.46361528
0.46950426
0.47519007
0.48066476
0.48592484
0.49097003
0.49580237
0.50042554
0.50484432
0.50906426
0.51309138
0.51693199
0.52059254
0.52407949
0.52739929
0.53055826
0.5335626
0.53641837
0.53913142
0.54170745
0.54415195
0.54647024
0.54866744
0.55074848
0.55271814
0.554581
0.55634147
0.5580038
0.55957209
0.56105026
0.5624421
0.56375122
0.56498111
0.56613511
0.56721642
0.56822807
0.56917297
0.57005389
0.57087347
0.57163422
0.57233849
0.57298851
0.57358637
0.57413404
0.57463326
0.57508563
0.57549264
0.57585591
0.5761771
0.57645727
0.57669595
0.57689148
0.57704469
0.5771637
0.57726102
0.57733303
0.57733451
0.57719959
0.57695802
0.57686518
0.45000865
0.41753482
0.38800949
0.3733159
0.36262273
0.35798209
0.35755323
0.36041971
0.36558484
0.37229243
0.37996066
0.38816931
0.39662162
0.40511348
0.41350753
0.42171367
0.42967478
0.43735659
0.44474048
0.45181849
0.45858985
0.46505852
0.47123155
0.47711792
0.48272771
0.48807161
0.49316048
0.49800515
0.50261625
0.50700407
0.51117855
0.51514922
0.51892517
0.52251509
0.52592724
0.52916949
0.53224932
0.53517384
0.53794984
0.54058377
0.54308177
0.5454497
0.54769317
0.5498175
0.55182781
0.55372897
0.55552564
0.5572223
0.55882322
0.5603325
0.56175405
0.56309162
0.56434882
0.56552908
0.56663569
0.56767177
0.56864029
0.56954412
0.57038598
0.57116843
0.57189392
0.57256474
0.57318306
0.5737509
0.57427008
0.57474231
0.57516921
0.57555248
0.57589369
0.57619375
0.57645246
0.57666928
0.57684613
0.57698986
0.57710817
0.57719473
0.57721575
0.57713199
0.57697917
0.57692623
0.35507292
0.321467
0.30399567
0.29965771
0.30115135
0.30751292
0.31674702
0.32759805
0.3391961
0.35099591
0.36266555
0.37401194
0.3849293
0.39536589
0.4053029
0.41474125
0.42369333
0.43217788
0.4402168
0.44783323
0.45505036
0.46189077
0.46837603
0.47452649
0.48036124
0.4858981
0.49115365
0.49614329
0.50088135
0.50538112
0.50965498
0.51371446
0.51757029
0.5212325
0.52471049
0.52801305
0.53114842
0.53412439
0.53694826
0.53962695
0.54216698
0.54457454
0.54685549
0.54901541
0.55105959
0.55299309
0.5548207
0.55654702
0.55817643
0.55971311
0.56116106
0.56252411
0.5638059
0.56500994
0.56613955
0.56719791
0.56818804
0.56911284
0.56997508
0.57077738
0.57152221
0.57221194
0.57284878
0.57343479
0.57397188
0.57446185
0.57490643
0.57530734
0.57566605
0.57598351
0.57626004
0.57649607
0.57669385
0.57685821
0.57699296
0.57709217
0.57713489
0.57710101
0.57701614
0.5769878
0.2163295
0.21503916
0.22050951
0.23401175
0.25135204
0.26975964
0.28802204
0.30550164
0.32197202
0.33737227
0.35172879
0.36510276
0.37756832
0.38920099
0.40007261
0.41024928
0.41979075
0.42875053
0.43717634
0.4451107
0.45259149
0.45965251
0.46632397
0.47263299
0.47860393
0.48425877
0.48961739
0.49469785
0.49951659
0.50408861
0.5084277
0.5125465
0.51645667
0.52016901
0.52369352
0.52703953
0.53021571
0.53323018
0.53609056
0.53880399
0.54137721
0.54381657
0.5461281
0.54831746
0.55039007
0.55235106
0.55420529
0.55595743
0.55761191
0.55917293
0.56064455
0.56203062
0.56333481
0.56456065
0.56571148
0.56679051
0.56780078
0.56874519
0.56962655
0.57044748
0.5712105
0.57191797
0.57257214
0.5731751
0.57372881
0.57423514
0.57469586
0.57511265
0.57548694
0.57581979
0.57611195
0.57636449
0.57657947
0.57675987
0.57690713
0.5770172
0.57707964
0.57708698
0.57705503
0.5770358
0.091768858
0.12177339
0.15923625
0.19292908
0.22307189
0.24960043
0.27313598
0.29414709
0.31305114
0.33017516
0.34578276
0.36008501
0.37325318
0.3854274
0.39672356
0.40723833
0.41705316
0.42623717
0.43484952
0.44294119
0.45055641
0.45773379
0.46450725
0.47090673
0.47695882
0.48268724
0.48811324
0.49325596
0.49813271
0.5027592
0.50714974
0.51131745
0.51527434
0.51903151
0.5225992
0.52598691
0.52920349
0.53225717
0.53515568
0.53790624
0.54051566
0.54299034
0.54533635
0.54755939
0.5496649
0.55165804
0.55354369
0.55532652
0.55701096
0.55860127
0.56010147
0.56151542
0.56284682
0.56409919
0.56527588
0.56638011
0.56741491
0.5683832
0.56928778
0.57013129
0.57091624
0.57164501
0.57231983
0.57294281
0.57351592
0.57404106
0.57451998
0.57495434
0.57534549
0.57569455
0.5760025
0.57627056
0.57650051
0.57669421
0.57685216
0.57697178
0.57704822
0.57707904
0.57707996
0.57706256
0.012367177
0.28489169
0.46704099
0.51777582
0.52750297
0.52751856
0.52752177
0.52913573
0.53102951
0.5328452
0.53453076
0.53617908
0.53773287
0.53925935
0.54076229
0.54225718
0.54374344
0.54522328
0.54669864
0.54817014
0.54963779
0.55110121
0.55255977
0.55401257
0.55545852
0.5568964
0.55832484
0.55974242
0.56114765
0.56253896
0.56391478
0.56527347
0.56661338
0.56793284
0.56923013
0.57050355
0.57175134
0.57297174
0.57416295
0.57532318
0.57645058
0.5775433
0.57859949
0.57961725
0.58059471
0.58152999
0.58242123
0.58326656
0.58406419
0.58481237
0.58550943
0.58615379
0.586744
0.58727875
0.58775687
0.58817737
0.58853946
0.58884249
0.58908608
0.58926976
0.58939284
0.58945494
0.58945609
0.58939639
0.58927517
0.58909231
0.5888439
0.58853346
0.58814586
0.58770892
0.58715934
0.58662014
0.58584517
0.58526429
0.58412746
0.58368611
0.58199853
0.58182364
0.57970013
0.57952749
0.047174921
0.36918905
0.52250287
0.54943057
0.54950333
0.54694652
0.54617746
0.54645463
0.54669303
0.54699243
0.54739142
0.54794217
0.54860525
0.54935019
0.55015307
0.55100861
0.55191172
0.55286008
0.55384952
0.5548755
0.5559339
0.5570208
0.55813244
0.55926518
0.56041548
0.56157988
0.56275508
0.56393782
0.56512496
0.56631345
0.56750034
0.56868273
0.56985782
0.57102288
0.57217521
0.57331221
0.57443131
0.57552998
0.57660574
0.57765614
0.57867875
0.5796712
0.58063115
0.58155628
0.58244433
0.58329307
0.58410032
0.58486399
0.58558202
0.5862525
0.58687361
0.58744368
0.58796117
0.58842475
0.58883323
0.58918562
0.58948119
0.58971938
0.58989988
0.5900223
0.59008605
0.59009089
0.59003701
0.58992457
0.58975309
0.58952235
0.58922899
0.5888756
0.58844922
0.58797358
0.58739339
0.58681673
0.58602278
0.58540472
0.58426323
0.5837804
0.5820926
0.58190468
0.57971123
0.5796419
0.093937849
0.44114358
0.5451605
0.5580446
0.55589697
0.55461044
0.55453417
0.55499712
0.55527646
0.555669
0.55604513
0.55648497
0.55694947
0.55746438
0.55801993
0.55861943
0.55925939
0.5599406
0.56066116
0.56141881
0.56221134
0.56303639
0.56389143
0.5647738
0.56568073
0.56660939
0.56755688
0.56852027
0.56949658
0.57048283
0.57147604
0.57247319
0.57347131
0.57446741
0.57545852
0.57644168
0.57741397
0.57837247
0.57931432
0.58023664
0.58113665
0.58201156
0.58285864
0.58367524
0.58445874
0.58520658
0.58591631
0.58658555
0.58721204
0.58779364
0.5883284
0.5888145
0.58925032
0.58963444
0.58996565
0.59024295
0.59046563
0.59063316
0.59074532
0.59080177
0.590802
0.59074588
0.5906337
0.59046571
0.59024152
0.58996089
0.58962079
0.58922322
0.58875659
0.588242
0.58762912
0.58701636
0.58619989
0.58554917
0.58439587
0.5838789
0.58218122
0.58198365
0.57972649
0.57975015
0.1666917
0.49940077
0.55863172
0.56597416
0.5625188
0.56238078
0.56242851
0.56292166
0.56309129
0.56343088
0.56370824
0.56406338
0.56443013
0.56483686
0.56526671
0.56572611
0.56621272
0.56672912
0.56727472
0.56784886
0.56845097
0.56908023
0.56973563
0.57041593
0.57111971
0.57184535
0.57259104
0.57335482
0.57413455
0.57492795
0.5757326
0.57654597
0.57736542