/*--------------------------------*- C++ -*----------------------------------*\
| =========                 |                                                 |
| \\      /  F ield         | OpenFOAM: The Open Source CFD Toolbox           |
|  \\    /   O peration     | Version:  2512                                  |
|   \\  /    A nd           | Website:  www.openfoam.com                      |
|    \\/     M anipulation  |                                                 |
\*---------------------------------------------------------------------------*/
FoamFile
{
    version     2.0;
    format      ascii;
    arch        "LSB;label=32;scalar=64";
    class       volScalarField;
    location    "0.148";
    object      nut;
}
// * * * * * * * * * * * * * * * * * * * * * * * * * * * * * * * * * * * * * //

dimensions      [0 2 -1 0 0 0 0];

internalField   nonuniform List<scalar> 
16000
(
5.6607166e-07
1.100289e-05
2.0079192e-05
2.3120658e-05
1.8535339e-05
2.5105215e-05
1.7852956e-05
2.4532949e-05
1.9077315e-05
2.6496109e-05
2.2162956e-05
2.6138552e-05
2.3727169e-05
2.4350523e-05
2.3478977e-05
2.3318545e-05
2.3045186e-05
2.2954219e-05
2.2942601e-05
2.3030431e-05
2.3209954e-05
2.3479703e-05
2.3836913e-05
2.4281372e-05
2.4814799e-05
2.5442803e-05
2.6172961e-05
2.7017586e-05
2.7991721e-05
2.9111559e-05
3.0394847e-05
3.1865266e-05
3.3553453e-05
3.5497184e-05
3.7742974e-05
4.0346311e-05
4.3373289e-05
4.6902704e-05
5.1032131e-05
5.5882538e-05
6.1595829e-05
6.8338999e-05
7.632268e-05
8.5804878e-05
9.709256e-05
0.00011055379
0.00012664502
0.00014592241
0.00016906311
0.00019689226
0.00023041966
0.00027088401
0.00031979981
0.00037902308
0.00045082855
0.00053801515
0.00064403731
0.00077317583
0.00093076902
0.0010188876
0.0010188192
0.0010187072
0.0010185591
0.0010183376
0.0010180391
0.0010176533
0.001017174
0.0010165956
0.001015908
0.0010150936
0.0010141224
0.0010129409
0.0010115083
0.0010100241
0.001008751
0.0010076198
0.0010066036
0.001006526
0.0010049299
0.0010057734
5.0945781e-07
1.0426046e-05
1.9570239e-05
2.0894313e-05
1.6754797e-05
2.2534802e-05
1.5876991e-05
2.1494037e-05
1.6886417e-05
2.3404957e-05
2.0096442e-05
2.358354e-05
2.1723756e-05
2.2083814e-05
2.1399203e-05
2.1188749e-05
2.0959242e-05
2.0865817e-05
2.0857641e-05
2.0937838e-05
2.1103883e-05
2.1353938e-05
2.1685796e-05
2.2099346e-05
2.259581e-05
2.3180417e-05
2.3859698e-05
2.4644726e-05
2.5549729e-05
2.6590511e-05
2.7783582e-05
2.9150566e-05
3.0719813e-05
3.2526292e-05
3.4613517e-05
3.7033659e-05
3.9849279e-05
4.3134413e-05
4.6979921e-05
5.1500316e-05
5.6831993e-05
6.3132176e-05
7.0599214e-05
7.9479128e-05
9.0066822e-05
0.00010271219
0.00011785069
0.00013601482
0.00015785439
0.00018416187
0.00021590744
0.00025428456
0.00030075451
0.00035711176
0.00042555806
0.00050880563
0.00061020659
0.00073391203
0.00088508429
0.0010181653
0.0010181171
0.0010179828
0.0010178202
0.0010175866
0.0010172776
0.0010168826
0.0010163945
0.0010158076
0.0010151125
0.0010142918
0.0010133189
0.0010121464
0.0010107361
0.0010093226
0.0010081113
0.0010070107
0.0010061182
0.0010057376
0.0010048039
0.0010056938
4.3372772e-07
9.9871689e-06
1.854846e-05
1.9193668e-05
1.5040891e-05
1.9888253e-05
1.415597e-05
1.8701869e-05
1.5201498e-05
2.0545911e-05
1.8340599e-05
2.1009206e-05
1.9692779e-05
1.9787504e-05
1.9257617e-05
1.9027899e-05
1.8834028e-05
1.8748531e-05
1.8745952e-05
1.8822969e-05
1.8978524e-05
1.9211167e-05
1.9518978e-05
1.9902157e-05
2.0361592e-05
2.0902348e-05
2.1530271e-05
2.2255402e-05
2.3091019e-05
2.4052555e-05
2.5155709e-05
2.6420494e-05
2.7873378e-05
2.9546924e-05
3.1481998e-05
3.3727733e-05
3.6343577e-05
3.9399864e-05
4.298185e-05
4.7197623e-05
5.217911e-05
5.807608e-05
6.5076436e-05
7.3415089e-05
8.3377439e-05
9.5298793e-05
0.00010959716
0.00012678534
0.00014749062
0.00017247918
0.00020268875
0.00023927573
0.00028365762
0.0003375785
0.00040318037
0.00048310391
0.00058061635
0.00069976821
0.00084558993
0.0010174895
0.0010174615
0.0010173004
0.0010171153
0.0010168617
0.0010165347
0.0010161232
0.0010156195
0.0010150177
0.0010143087
0.0010134752
0.0010124926
0.0010113205
0.0010099247
0.0010085899
0.0010074452
0.0010064105
0.0010055791
0.0010050993
0.0010045725
0.0010054323
3.8943862e-07
9.6624589e-06
1.7647361e-05
1.8411883e-05
1.3573909e-05
1.7593541e-05
1.2631898e-05
1.6358561e-05
1.3698306e-05
1.8114964e-05
1.675734e-05
1.8727481e-05
1.7817462e-05
1.7719402e-05
1.730641e-05
1.7078178e-05
1.6915561e-05
1.684241e-05
1.6847274e-05
1.6923655e-05
1.707124e-05
1.7289109e-05
1.7575703e-05
1.7931681e-05
1.8357751e-05
1.8858962e-05
1.9440722e-05
2.0112264e-05
2.0885961e-05
2.177694e-05
2.2800379e-05
2.397492e-05
2.5325513e-05
2.6882656e-05
2.8684981e-05
3.0779012e-05
3.3221518e-05
3.6079953e-05
3.9435144e-05
4.3389221e-05
4.8070721e-05
5.3623819e-05
6.0228089e-05
6.8108623e-05
7.7544055e-05
8.8858554e-05
0.00010245641
0.00011883526
0.00013860514
0.00016251314
0.00019147251
0.00022661275
0.00026931954
0.00032130137
0.00038465883
0.00046198343
0.00055648419
0.00067214507
0.00081391614
0.00098794402
0.0010168498
0.0010166591
0.0010164466
0.0010161684
0.001015819
0.0010153872
0.0010148641
0.0010142436
0.0010135173
0.0010126676
0.0010116713
0.0010104975
0.0010091122
0.0010078561
0.0010067823
0.0010058195
0.0010050202
0.0010044998
0.0010042381
0.0010048691
3.5253976e-07
9.429074e-06
1.6889359e-05
1.8494505e-05
1.3441444e-05
1.5582486e-05
1.1294005e-05
1.4344479e-05
1.2404978e-05
1.602136e-05
1.5351195e-05
1.6672575e-05
1.6067726e-05
1.5838971e-05
1.5512219e-05
1.5298509e-05
1.516084e-05
1.5099531e-05
1.5109676e-05
1.5184082e-05
1.5322778e-05
1.5525535e-05
1.5791189e-05
1.6120899e-05
1.6515338e-05
1.6979567e-05
1.7518678e-05
1.8141259e-05
1.8858775e-05
1.9686001e-05
2.0637778e-05
2.1731617e-05
2.2991214e-05
2.4445291e-05
2.613057e-05
2.8091315e-05
3.0381915e-05
3.3067518e-05
3.6225675e-05
3.9952879e-05
4.4374852e-05
4.9631648e-05
5.5896419e-05
6.3385089e-05
7.237127e-05
8.317058e-05
9.6176106e-05
0.00011187322
0.00013085785
0.00015386248
0.00018178053
0.00021572046
0.0002570425
0.00030742717
0.00036894293
0.00044414298
0.00053619103
0.000649019
0.00078751565
0.00095774595
0.001016283
0.0010160599
0.0010158146
0.0010155068
0.0010151301
0.0010146732
0.0010141266
0.0010134833
0.0010127356
0.0010118664
0.0010108514
0.0010096725
0.0010083068
0.0010071296
0.00100613
0.0010052395
0.0010044677
0.0010039512
0.001003868
0.0010041396
3.0473384e-07
9.2725552e-06
1.6279565e-05
1.8223186e-05
1.3244232e-05
1.3828449e-05
1.0744142e-05
1.2675958e-05
1.1713215e-05
1.4303405e-05
1.4122086e-05
1.4866599e-05
1.4464537e-05
1.4157996e-05
1.3885288e-05
1.3687755e-05
1.356631e-05
1.3512709e-05
1.3524739e-05
1.3595376e-05
1.3724643e-05
1.3912867e-05
1.4159141e-05
1.4464879e-05
1.4830939e-05
1.5262283e-05
1.5763768e-05
1.6343488e-05
1.7012037e-05
1.7783811e-05
1.8673489e-05
1.9697678e-05
2.0879099e-05
2.2245013e-05
2.3830596e-05
2.5678266e-05
2.7840433e-05
3.0380447e-05
3.3373825e-05
3.6912245e-05
4.1118894e-05
4.6131226e-05
5.2118365e-05
5.9287986e-05
6.7910569e-05
7.8296188e-05
9.0829717e-05
0.00010598793
0.00012435639
0.00014665863
0.00017377421
0.00020679793
0.00024707328
0.000296263
0.0003564162
0.00043006298
0.00052033967
0.00063114725
0.0007673414
0.00093494474
0.0010157529
0.0010154948
0.0010152124
0.0010148705
0.0010144625
0.0010139767
0.0010134029
0.0010127335
0.001011961
0.0010110697
0.0010100328
0.0010088437
0.0010075136
0.0010064158
0.0010054929
0.0010046746
0.0010039345
0.0010034274
0.0010034539
0.0010035063
2.7643036e-07
9.1805496e-06
1.5798002e-05
1.7197139e-05
1.3087001e-05
1.2219096e-05
1.0735183e-05
1.1672959e-05
1.1204907e-05
1.27167e-05
1.3000372e-05
1.3261198e-05
1.2964598e-05
1.262565e-05
1.2385016e-05
1.220505e-05
1.2096864e-05
1.2050759e-05
1.2065161e-05
1.2133584e-05
1.2255679e-05
1.243226e-05
1.2662675e-05
1.2871874e-05
1.320493e-05
1.3600507e-05
1.4062851e-05
1.4599375e-05
1.5219625e-05
1.5937288e-05
1.6766851e-05
1.7724049e-05
1.8830714e-05
2.0112726e-05
2.1603844e-05
2.3344814e-05
2.5386201e-05
2.7789597e-05
3.0629239e-05
3.424946e-05
3.828314e-05
4.3100334e-05
4.8868549e-05
5.5788421e-05
6.4128354e-05
7.4195795e-05
8.6370293e-05
0.00010112336
0.00011903336
0.00014082013
0.00016735457
0.0001997246
0.00023926464
0.0002876286
0.00034685739
0.00041947137
0.00050859516
0.00061811676
0.00075288128
0.00091890119
0.0010152565
0.0010149608
0.0010146373
0.0010142576
0.0010138143
0.0010132962
0.0010126923
0.0010119937
0.0010111933
0.0010102776
0.0010092175
0.0010080104
0.0010067426
0.0010057239
0.0010048779
0.0010041316
0.0010034333
0.0010029387
0.0010029791
0.0010029163
2.5603609e-07
9.1273157e-06
1.537807e-05
1.5601741e-05
1.1728272e-05
1.0644241e-05
9.0518643e-06
1.0369203e-05
9.4835659e-06
1.1457238e-05
1.186019e-05
1.177829e-05
1.1527227e-05
1.1199151e-05
1.0986151e-05
1.0828934e-05
1.0736778e-05
1.0701263e-05
1.0655866e-05
1.0709452e-05
1.081639e-05
1.0976641e-05
1.1188374e-05
1.1451155e-05
1.1769129e-05
1.2145335e-05
1.2584182e-05
1.3093049e-05
1.3680974e-05
1.4361251e-05
1.5148598e-05
1.6058318e-05
1.7111845e-05
1.8334216e-05
1.9758385e-05
2.1424063e-05
2.3380728e-05
2.5688907e-05
2.8422435e-05
3.1671194e-05
3.5544722e-05
4.0181728e-05
4.5749911e-05
5.2886548e-05
6.1025479e-05
7.0871146e-05
8.2801008e-05
9.7284586e-05
0.00011489635
0.00013635807
0.00016253754
0.00019452289
0.00023364796
0.00028156743
0.00034032591
0.00041244869
0.00050106587
0.00061007245
0.00074432644
0.00090986328
0.0010147871
0.0010144514
0.0010140838
0.001013663
0.0010131814
0.0010126281
0.0010119914
0.0010112616
0.0010104307
0.0010094885
0.0010084074
0.0010071746
0.0010059997
0.0010050603
0.0010042901
0.0010036151
0.0010029681
0.0010024949
0.0010025087
0.001002351
2.2716289e-07
9.0927294e-06
1.4921795e-05
1.3663622e-05
9.6104838e-06
9.4840777e-06
7.4881422e-06
8.9051524e-06
9.0597156e-06
1.026243e-05
1.0708697e-05
1.0402221e-05
1.0175303e-05
9.8814049e-06
9.6954648e-06
9.49564e-06
9.3958675e-06
9.3573804e-06
9.3731542e-06
9.4398737e-06
9.5526001e-06
9.7143884e-06
9.9226403e-06
1.0177819e-05
1.0483986e-05
1.084499e-05
1.1265348e-05
1.1752505e-05
1.2315169e-05
1.296623e-05
1.3720744e-05
1.4593807e-05
1.5606741e-05
1.6784006e-05
1.815807e-05
1.976803e-05
2.1662718e-05
2.3902093e-05
2.6559429e-05
2.9723879e-05
3.3505398e-05
3.8040768e-05
4.3500535e-05
5.0082414e-05
5.8039828e-05
6.7687998e-05
8.0106899e-05
9.4454674e-05
0.00011192644
0.00013325119
0.00015929954
0.00019116701
0.00023019535
0.0002780499
0.00033679107
0.000408964
0.00049772209
0.00060698789
0.00074165545
0.00090781447
0.0010143393
0.0010139614
0.0010135473
0.0010130829
0.0010125605
0.0010119695
0.0010112981
0.0010105355
0.0010096725
0.0010087009
0.0010076042
0.0010063621
0.0010052918
0.0010044317
0.0010037348
0.0010031297
0.00100254
0.0010020885
0.0010020539
0.0010017667
2.0699705e-07
9.0517178e-06
1.3210188e-05
1.1946973e-05
7.7686809e-06
8.4387756e-06
6.784427e-06
8.0148879e-06
8.3837836e-06
9.1730796e-06
9.5693251e-06
9.1508218e-06
8.9335443e-06
8.5946703e-06
8.4015919e-06
8.2735416e-06
8.2074648e-06
8.1943827e-06
8.2272804e-06
8.306616e-06
8.4266843e-06
8.5892665e-06
8.7955815e-06
9.0454789e-06
9.3432968e-06
9.6933255e-06
1.0100267e-05
1.0571761e-05
1.1116335e-05
1.1746508e-05
1.2477714e-05
1.3325133e-05
1.4310173e-05
1.545696e-05
1.6797766e-05
1.837144e-05
2.0226579e-05
2.2423078e-05
2.5034545e-05
2.815059e-05
3.1881321e-05
3.6363213e-05
4.1770045e-05
4.8299789e-05
5.6208356e-05
6.5813262e-05
7.7505943e-05
9.1745894e-05
0.00011011361
0.00013149046
0.0001576337
0.00018965328
0.0002289081
0.00027708456
0.00033627165
0.00040905027
0.00049861616
0.00060894206
0.00074498271
0.00091291219
0.0010139065
0.0010134847
0.0010130227
0.0010125128
0.0010119477
0.0010113173
0.0010106097
0.0010098133
0.0010089179
0.0010079146
0.0010068042
0.0010055976
0.0010046245
0.0010038431
0.001003216
0.0010026785
0.0010021511
0.0010017187
0.0010016148
0.0010012398
1.9011341e-07
9.0007615e-06
1.0473905e-05
9.8201503e-06
6.4322846e-06
7.5107211e-06
6.1900006e-06
7.1976092e-06
7.8365883e-06
8.1774132e-06
8.4500544e-06
7.9259565e-06
7.6647611e-06
7.4254982e-06
7.2799903e-06
7.1911071e-06
7.1532754e-06
7.1629023e-06
7.2125833e-06
7.3015405e-06
7.4282113e-06
7.5939578e-06
7.8003786e-06
8.0479473e-06
8.3411184e-06
8.6846542e-06
9.0835673e-06
9.5457454e-06
1.0079714e-05
1.0697671e-05
1.1356948e-05
1.2180111e-05
1.3139237e-05
1.4258072e-05
1.5568661e-05
1.7109627e-05
1.8929387e-05
2.108782e-05
2.3658988e-05
2.6733224e-05
3.0421798e-05
3.5135967e-05
4.0545305e-05
4.7089714e-05
5.5027711e-05
6.4680313e-05
7.645026e-05
9.0808162e-05
0.00010834752
0.00012980821
0.00015752544
0.00018997
0.00022977892
0.00027867055
0.00033877602
0.00041272894
0.00050378761
0.00061599968
0.00075440762
0.00092529883
0.001013483
0.0010130156
0.001012505
0.0010119486
0.0010113396
0.0010106687
0.0010099239
0.0010090932
0.0010081662
0.0010071321
0.0010060012
0.001004882
0.0010040031
0.0010032989
0.0010027369
0.0010022632
0.0010018025
0.0010013936
0.0010012097
0.0010008517
1.7479506e-07
8.9477837e-06
8.2666498e-06
8.3603416e-06
5.7582098e-06
6.6510239e-06
5.677967e-06
6.4827816e-06
7.2774956e-06
7.2481254e-06
7.2368863e-06
6.7901067e-06
6.575872e-06
6.3976433e-06
6.2927534e-06
6.2368898e-06
6.2251224e-06
6.2529204e-06
6.317009e-06
6.4169575e-06
6.5512284e-06
6.7216165e-06
6.9305987e-06
7.1791463e-06
7.4718426e-06
7.7802706e-06
8.1699896e-06
8.6225353e-06
9.1462988e-06
9.7530357e-06
1.0456886e-05
1.1276243e-05
1.2231845e-05
1.3347518e-05
1.4655627e-05
1.6195238e-05
1.8015413e-05
2.0176895e-05
2.2755318e-05
2.5843035e-05
2.9554078e-05
3.4030952e-05
3.9448271e-05
4.6015456e-05
5.3995561e-05
6.4269447e-05
7.6227104e-05
9.0833166e-05
0.0001086921
0.00013056715
0.00015739091
0.00019210582
0.00023280259
0.0002828113
0.0003443194
0.00042003154
0.00051329039
0.00062824549
0.00077005828
0.00094515758
0.0010130628
0.0010125486
0.0010119896
0.0010113863
0.0010107329
0.0010100208
0.0010092386
0.0010083735
0.0010074156
0.0010063583
0.0010052063
0.0010042187
0.0010034308
0.0010028017
0.0010023003
0.001001884
0.0010014914
0.0010011208
0.0010008707
0.0010004961
1.6135875e-07
8.8692097e-06
6.5769548e-06
7.3435868e-06
5.1317665e-06
5.8810947e-06
5.2347645e-06
5.8460028e-06
6.6104495e-06
6.1951987e-06
6.1411606e-06
5.796062e-06
5.6251745e-06
5.4966468e-06
5.4267896e-06
5.399404e-06
5.4099606e-06
5.4559273e-06
5.5342599e-06
5.6454026e-06
5.7886997e-06
5.966079e-06
6.1543875e-06
6.4018223e-06
6.6932236e-06
7.0327933e-06
7.4275871e-06
7.8851498e-06
8.4140647e-06
9.0262635e-06
9.7360212e-06
1.05615e-05
1.1524673e-05
1.2649742e-05
1.3969656e-05
1.5524286e-05
1.7363873e-05
1.9550524e-05
2.2162133e-05
2.5294068e-05
2.9063305e-05
3.3615635e-05
3.9134717e-05
4.5835358e-05
5.3988974e-05
6.3933206e-05
7.608755e-05
9.0959235e-05
0.00011013456
0.00013261249
0.00016019497
0.00019407335
0.0002379661
0.0002895022
0.00035290834
0.00043098024
0.00052716851
0.00064575323
0.0007920521
0.00097266612
0.0010126407
0.0010120789
0.0010114725
0.0010108228
0.001010125
0.0010093717
0.0010085523
0.0010076538
0.001006665
0.001005594
0.0010044882
0.0010036086
0.0010029093
0.001002353
0.0010019085
0.0010015417
0.0010012114
0.001000894
0.0010006107
0.0010002071
1.4947995e-07
8.735928e-06
5.2797652e-06
6.4208675e-06
4.5689732e-06
5.1937222e-06
4.8563375e-06
5.1953263e-06
5.7745506e-06
5.2803286e-06
5.1806629e-06
4.9274214e-06
4.7972089e-06
4.7102059e-06
4.6713502e-06
4.6695891e-06
4.701073e-06
4.7643023e-06
4.8572197e-06
4.9620838e-06
5.1104873e-06
5.2930048e-06
5.5119318e-06
5.7702539e-06
6.0722499e-06
6.4224732e-06
6.8278686e-06
7.2965734e-06
7.8373721e-06
8.4623442e-06
9.1858869e-06
1.0026399e-05
1.0956678e-05
1.2091161e-05
1.3422734e-05
1.4992053e-05
1.6850734e-05
1.9062294e-05
2.1706918e-05
2.4883473e-05
2.8712859e-05
3.3598363e-05
3.926936e-05
4.6164379e-05
5.4564258e-05
6.4816448e-05
7.7360667e-05
9.2726778e-05
0.00011156387
0.000135914
0.00016448442
0.00019959566
0.00024276876
0.00029872459
0.00036453399
0.00044557942
0.0005454462
0.00066857399
0.00082047975
0.0010079787
0.0010122118
0.0010116025
0.0010109504
0.0010102554
0.0010095142
0.0010087201
0.0010078639
0.0010069343
0.0010059187
0.0010048288
0.0010038346
0.0010030549
0.0010024389
0.0010019523
0.0010015627
0.0010012382
0.0010009577
0.0010007041
0.0010004408
0.0010000017
1.3896287e-07
8.5166119e-06
4.3029245e-06
5.5955373e-06
4.0646131e-06
4.582485e-06
4.5240756e-06
4.4895301e-06
4.9338743e-06
4.4663749e-06
4.3499965e-06
4.1722298e-06
4.0802671e-06
4.0289491e-06
4.0181017e-06
4.0399659e-06
4.0915006e-06
4.1554896e-06
4.258349e-06
4.3917635e-06
4.556617e-06
4.7544458e-06
4.9881958e-06
5.2610178e-06
5.5777134e-06
5.943068e-06
6.3640708e-06
6.8287677e-06
7.3815482e-06
8.0191254e-06
8.755956e-06
9.6104792e-06
1.0605265e-05
1.1768696e-05
1.3134665e-05
1.4745185e-05
1.6654227e-05
1.8927718e-05
2.1649045e-05
2.4922089e-05
2.8873315e-05
3.3662098e-05
3.9481268e-05
4.6568452e-05
5.5216536e-05
6.6338349e-05
7.9376694e-05
9.536079e-05
0.00011497183
0.0001390503
0.00017021649
0.00020683564
0.00025188398
0.00030731851
0.00037915594
0.00046379631
0.00056810383
0.00069670748
0.00085536704
0.0010124
0.0010117716
0.0010111166
0.001010421
0.0010096827
0.0010088994
0.0010080658
0.0010071734
0.0010062137
0.0010051841
0.0010041129
0.0010032464
0.0010025582
0.0010020188
0.0010015981
0.0010012627
0.0010009765
0.0010007292
0.0010005329
0.0010003412
0.00099989237
1.2972422e-07
8.2139483e-06
3.6855994e-06
4.8613439e-06
3.6145676e-06
4.0401146e-06
4.007473e-06
3.8514068e-06
4.1257826e-06
3.7483715e-06
3.6392351e-06
3.5214827e-06
3.4651349e-06
3.4453118e-06
3.4602186e-06
3.4915448e-06
3.5566211e-06
3.6512729e-06
3.7747186e-06
3.9272047e-06
4.1101971e-06
4.3257098e-06
4.577067e-06
4.8676779e-06
5.1909636e-06
5.571587e-06
6.0081735e-06
6.5088266e-06
7.0837519e-06
7.7451276e-06
8.5078086e-06
9.3910034e-06
1.0418231e-05
1.1618974e-05
1.3029478e-05
1.4693324e-05
1.6667387e-05
1.9020717e-05
2.1840154e-05
2.5235769e-05
2.9339121e-05
3.4317636e-05
4.0376721e-05
4.7764706e-05
5.6791067e-05
6.7835684e-05
8.2088858e-05
9.8813932e-05
0.00011934409
0.00014457141
0.0001755711
0.00021572325
0.00026297398
0.00032114255
0.00039276355
0.00048553524
0.00059504658
0.00073006559
0.00089662972
0.0010119805
0.0010113165
0.0010106192
0.001009883
0.0010091042
0.0010082808
0.0010074093
0.0010064829
0.0010054946
0.001004455
0.0010034848
0.001002722
0.0010021184
0.0010016482
0.0010012879
0.0010010057
0.0010007582
0.0010005327
0.0010003689
0.0010002335
0.000999854
1.2179933e-07
7.3863651e-06
3.236267e-06
4.2045837e-06
3.2141754e-06
3.408133e-06
3.5500162e-06
3.2670309e-06
3.3955053e-06
3.125262e-06
3.0380871e-06
2.967931e-06
2.9441525e-06
2.9528183e-06
2.9768479e-06
3.0382909e-06
3.1281475e-06
3.2452091e-06
3.3895539e-06
3.5621156e-06
3.7648681e-06
4.0000847e-06
4.2633007e-06
4.5716342e-06
4.9243084e-06
5.3269953e-06
5.7865314e-06
6.3113249e-06
6.9118047e-06
7.6009322e-06
8.3940502e-06
9.3111966e-06
1.0376968e-05
1.1622331e-05
1.302973e-05
1.474313e-05
1.6777847e-05
1.9206544e-05
2.2252932e-05
2.5795194e-05
3.0080588e-05
3.5284539e-05
4.1626127e-05
4.9367059e-05
5.8832656e-05
7.042582e-05
8.4641092e-05
0.00010208569
0.00012460931
0.00015115322
0.00018378728
0.0002239286
0.00027591395
0.00033720198
0.00041268324
0.00051060648
0.00062606429
0.00076842471
0.00094403308
0.0010115463
0.0010108461
0.0010101098
0.0010093363
0.0010085203
0.0010076596
0.0010067523
0.0010057946
0.0010047877
0.0010037629
0.0010029306
0.0010022617
0.0010017341
0.001001326
0.0010010193
0.0010007863
0.0010005803
0.001000377
0.0010002356
0.0010001519
0.00099996175
1.1540303e-07
5.3611082e-06
2.8513008e-06
3.6093821e-06
2.8660464e-06
2.8254154e-06
3.093896e-06
2.7376339e-06
2.7685792e-06
2.5934863e-06
2.5353484e-06
2.5042635e-06
2.5028254e-06
2.530667e-06
2.59041e-06
2.6779574e-06
2.7913813e-06
2.9304591e-06
3.0959966e-06
3.2893574e-06
3.5078287e-06
3.7622674e-06
4.0527981e-06
4.3834554e-06
4.759075e-06
5.1855356e-06
5.6699991e-06
6.2212107e-06
6.8499365e-06
7.553113e-06
8.3747105e-06
9.3232141e-06
1.0424225e-05
1.1709823e-05
1.3220137e-05
1.5005346e-05
1.7127504e-05
1.96643e-05
2.2712153e-05
2.639022e-05
3.0846489e-05
3.6524438e-05
4.3186415e-05
5.1327529e-05
6.1290025e-05
7.3499524e-05
8.847979e-05
0.00010687592
0.00013066994
0.00015868311
0.00019313953
0.0002355351
0.00029051504
0.00035527532
0.00043505972
0.00053338537
0.00066079393
0.00081137379
0.00099711973
0.0010110992
0.0010103617
0.0010095893
0.0010087816
0.0010079327
0.0010070386
0.0010060983
0.0010051124
0.0010040946
0.0010031731
0.0010024453
0.0010018626
0.0010014031
0.0010010508
0.0010007907
0.0010005992
0.0010004339
0.0010002649
0.0010001558
0.0010001167
0.00099999938
1.1018686e-07
3.9867478e-06
2.5055676e-06
3.0588968e-06
2.4292609e-06
2.3352819e-06
2.6166482e-06
2.2669608e-06
2.248087e-06
2.1473625e-06
2.1213998e-06
2.1172552e-06
2.1452307e-06
2.2046221e-06
2.2913039e-06
2.4028918e-06
2.5386679e-06
2.6990953e-06
2.8828188e-06
3.0957875e-06
3.339015e-06
3.6153335e-06
3.9281995e-06
4.2818245e-06
4.6812942e-06
5.1327443e-06
5.6436282e-06
6.2137226e-06
6.8692313e-06
7.6175922e-06
8.4760887e-06
9.4661944e-06
1.0614977e-05
1.1956431e-05
1.3533183e-05
1.5398368e-05
1.7618046e-05
2.0274426e-05
2.3469816e-05
2.7331193e-05
3.201595e-05
3.7718222e-05
4.5010549e-05
5.3591293e-05
6.4099449e-05
7.6985107e-05
9.280268e-05
0.00011223635
0.00013613017
0.00016701002
0.00020344852
0.00024829819
0.00030352587
0.00037504625
0.00045951106
0.00056363324
0.00069868338
0.00085826251
0.0010114014
0.0010106412
0.0010098667
0.0010090609
0.0010082215
0.0010073435
0.0010064208
0.001005452
0.0010044501
0.001003454
0.0010026615
0.0010020264
0.0010015208
0.001001122
0.0010008198
0.0010006011
0.0010004415
0.0010003059
0.0010001746
0.0010000993
0.001000089
0.0010000225
1.0462034e-07
3.522413e-06
2.1399903e-06
2.5510765e-06
2.0708739e-06
1.9247942e-06
2.1296461e-06
1.8565247e-06
1.8273608e-06
1.7832982e-06
1.7851699e-06
1.8130835e-06
1.8735517e-06
1.9602425e-06
2.0707213e-06
2.2040684e-06
2.3604931e-06
2.5391644e-06
2.7447846e-06
2.9784778e-06
3.242768e-06
3.5407196e-06
3.8760008e-06
4.2529953e-06
4.67697e-06
5.1542856e-06
5.6863756e-06
6.2925547e-06
6.980241e-06
7.7639016e-06
8.6617364e-06
9.6964702e-06
1.089669e-05
1.2298338e-05
1.3946663e-05
1.5898325e-05
1.8223693e-05
2.1010004e-05
2.4365788e-05
2.8425235e-05
3.3354973e-05
3.9645951e-05
4.7043645e-05
5.609393e-05
6.7184571e-05
8.0791371e-05
9.7500855e-05
0.00011803674
0.00014461973
0.00017593855
0.00021447692
0.0002619267
0.00032037375
0.00039608509
0.0004855223
0.00059581217
0.00073895075
0.00090814034
0.001010959
0.0010101744
0.0010093665
0.0010085297
0.0010076603
0.0010067556
0.0010058107
0.00100482
0.0010038048
0.0010029213
0.0010022207
0.0010016671
0.0010012307
0.0010008872
0.0010006277
0.0010004468
0.0010003137
0.001000201
0.0010000997
0.0010000592
0.0010000722
0.0010000398
1.0055315e-07
3.0379972e-06
1.8244652e-06
2.0397803e-06
1.7748093e-06
1.5747593e-06
1.6828068e-06
1.5114638e-06
1.4987002e-06
1.4992419e-06
1.5287613e-06
1.5901234e-06
1.6773429e-06
1.7868958e-06
1.9178389e-06
2.0703711e-06
2.2444463e-06
2.4431528e-06
2.6680679e-06
2.9215149e-06
3.2062723e-06
3.5255905e-06
3.8832786e-06
4.2838445e-06
4.7326935e-06
5.2328143e-06
5.79751e-06
6.4342864e-06
7.1552201e-06
7.9754661e-06
8.9142599e-06
9.9956418e-06
1.124988e-05
1.2714984e-05
1.4438769e-05
1.6481374e-05
1.8917997e-05
2.1840998e-05
2.5365744e-05
2.963432e-05
3.5051995e-05
4.1429123e-05
4.9220428e-05
5.8759081e-05
7.0453799e-05
8.4808314e-05
0.0001024426
0.00012412215
0.00015215009
0.00018521823
0.00022592334
0.00027605512
0.00033782677
0.00041781974
0.00051239943
0.0006290806
0.00078055107
0.00095973183
0.0010105158
0.0010097054
0.0010088675
0.0010080029
0.001007106
0.0010061744
0.0010052102
0.001004222
0.0010032417
0.0010024704
0.0010018489
0.0010013609
0.001000984
0.0010006952
0.0010004688
0.0010003213
0.0010002108
0.0010001156
0.0010000379
0.0010000265
0.0010000597
0.0010000509
9.8137557e-08
2.5365687e-06
1.5502828e-06
1.5528395e-06
1.5044325e-06
1.2771851e-06
1.320809e-06
1.2378813e-06
1.2535904e-06
1.2854534e-06
1.348388e-06
1.4355591e-06
1.5439219e-06
1.6721396e-06
1.8204656e-06
1.9899091e-06
2.1813351e-06
2.3977067e-06
2.6408601e-06
2.9133438e-06
3.2180828e-06
3.5584471e-06
3.9383491e-06
4.3623954e-06
4.8360961e-06
5.3661508e-06
5.9608187e-06
6.6303669e-06
7.3791529e-06
8.2365486e-06
9.2170216e-06
1.0346011e-05
1.1655583e-05
1.3186008e-05
1.4987709e-05
1.7193513e-05
1.9763195e-05
2.2848862e-05
2.6573335e-05
3.108819e-05
3.6580195e-05
4.3279137e-05
5.1469025e-05
6.1499642e-05
7.3802037e-05
8.8907809e-05
0.00010747148
0.00013143844
0.00015973249
0.0001945501
0.00023742
0.00029023206
0.00035868859
0.00043954393
0.00053927672
0.00066238057
0.00082216042
0.0010109227
0.0010100819
0.0010092443
0.0010083784
0.0010074883
0.0010065691
0.0010056152
0.0010046252
0.0010036288
0.0010027805
0.0010020932
0.0010015425
0.0010011066
0.0010007719
0.0010005387
0.0010003392
0.0010002176
0.0010001276
0.0010000492
0.00099999262
0.0010000034
0.0010000542
0.0010000581
9.8162681e-08
2.0406401e-06
1.3194851e-06
1.1797921e-06
1.2357519e-06
1.0295357e-06
1.055957e-06
1.0363661e-06
1.0807069e-06
1.1419193e-06
1.2285881e-06
1.3349228e-06
1.4598613e-06
1.6035548e-06
1.767065e-06
1.951892e-06
2.1595657e-06
2.3926508e-06
2.6533244e-06
2.9442463e-06
3.2684272e-06
3.6293155e-06
4.0309085e-06
4.477912e-06
4.9759609e-06
5.5319169e-06
6.1542683e-06
6.8536294e-06
7.6433635e-06
8.5403717e-06
9.5660231e-06
1.0747389e-05
1.2118593e-05
1.372256e-05
1.5613046e-05
1.7857137e-05
2.0538344e-05
2.3760601e-05
2.7652571e-05
3.2373575e-05
3.8120466e-05
4.5135496e-05
5.3715074e-05
6.4226547e-05
7.7121384e-05
9.372598e-05
0.00011333448
0.00013744069
0.00016709621
0.00020360081
0.00024855952
0.00030681091
0.00037560847
0.00046045074
0.00056515673
0.0007012206
0.00086221435
0.0010105203
0.0010096668
0.0010088036
0.0010079124
0.0010069962
0.0010060547
0.0010050896
0.0010041061
0.0010031395
0.0010023907
0.0010017803
0.0010012932
0.0010009072
0.0010006122
0.0010003874
0.001000236
0.0010001311
0.0010000581
0.00099999745
0.00099996257
0.0009999892
0.0010000485
0.0010000562
1.0144524e-07
1.5834423e-06
1.1302121e-06
9.0777573e-07
1.0794892e-06
8.2510155e-07
8.7426518e-07
8.9956184e-07
9.6636893e-07
1.0502937e-06
1.153923e-06
1.2748423e-06
1.4134444e-06
1.570725e-06
1.7481531e-06
1.9474435e-06
2.1705454e-06
2.4194885e-06
2.6969057e-06
3.0054367e-06
3.3481568e-06
3.7285865e-06
4.1508095e-06
4.6196397e-06
5.1408491e-06
5.7214783e-06
6.370255e-06
7.0981634e-06
7.9190764e-06
8.8506173e-06
9.9150928e-06
1.1140835e-05
1.2563592e-05
1.4228361e-05
1.6191507e-05
1.8523398e-05
2.1311545e-05
2.4664477e-05
2.8716471e-05
3.3633401e-05
3.9890427e-05
4.725847e-05
5.6269281e-05
6.7307902e-05
8.0847833e-05
9.7472618e-05
0.00011790205
0.00014302429
0.0001739328
0.00021396567
0.00026118818
0.00031936786
0.00039109584
0.00047959102
0.00059460195
0.00073062014
0.00089879905
0.0010101406
0.0010092744
0.0010083936
0.001007485
0.0010065476
0.0010055802
0.0010045882
0.0010036018
0.0010027526
0.0010020697
0.0010015214
0.0010010843
0.0010007383
0.0010004851
0.0010002797
0.0010001496
0.0010000599
0.00099999764
0.00099995281
0.00099993952
0.00099998239
0.0010000485
0.0010000572
1.0814116e-07
1.2367235e-06
9.6776923e-07
7.6483644e-07
7.7092359e-07
7.0557331e-07
7.5173016e-07
8.1218849e-07
8.9578485e-07
9.9540223e-07
1.1117462e-06
1.2447336e-06
1.3954281e-06
1.5651396e-06
1.7554562e-06
1.9681499e-06
2.2052028e-06
2.4688233e-06
2.7614852e-06
3.0859719e-06
3.4454421e-06
3.8435175e-06
4.2844077e-06
4.7730865e-06
5.3155376e-06
5.9169772e-06
6.5894963e-06
7.3431057e-06
8.1995082e-06
9.165584e-06
1.0269648e-05
1.1541413e-05
1.3018336e-05
1.4747507e-05
1.6787864e-05
1.921289e-05
2.2113892e-05
2.5604018e-05
2.9823165e-05
3.4944043e-05
4.1179654e-05
4.8792514e-05
5.8105867e-05
6.9515957e-05
8.351275e-05
0.00010069933
0.00012290393
0.00014907642
0.00018126917
0.00022089414
0.00026969787
0.00032984712
0.00040403084
0.00050030334
0.00061422827
0.00075505053
0.00092930655
0.0010097971
0.0010089162
0.0010080196
0.0010070994
0.001006154
0.0010051819
0.0010041891
0.0010032146
0.0010024455
0.0010018187
0.0010013182
0.0010009205
0.0010006081
0.0010003915
0.0010001926
0.001000076
0.0010000031
0.00099994591
0.00099991163
0.00099991314
0.00099996867
0.0010000444
0.0010000553
1.2254467e-07
1.2086818e-06
8.0937091e-07
5.6791391e-07
6.1246917e-07
6.1527432e-07
6.7916558e-07
7.5806107e-07
8.548928e-07
9.6641353e-07
1.0936375e-06
1.2373756e-06
1.3989169e-06
1.579666e-06
1.7812382e-06
2.0054323e-06
2.2542605e-06
2.5299729e-06
2.835094e-06
3.1724664e-06
3.5453122e-06
3.9573196e-06
4.4127663e-06
4.916697e-06
5.4751751e-06
6.0956273e-06
6.7873025e-06
7.5618594e-06
8.4341135e-06
9.422929e-06
1.0552293e-05
1.1852664e-05
1.3362493e-05
1.513013e-05
1.7216074e-05
1.9695717e-05
2.2662689e-05
2.6232908e-05
3.0549571e-05
3.5789267e-05
4.2169625e-05
5.0316629e-05
5.9918864e-05
7.167911e-05
8.6101548e-05
0.00010380647
0.00012555951
0.00015230621
0.00018521541
0.00022573167
0.0002756485
0.00034030306
0.00041677999
0.00051118562
0.00062784124
0.00077215027
0.00095087209
0.0010095176
0.0010086191
0.0010077027
0.0010067647
0.0010058044
0.0010048235
0.0010038383
0.0010029287
0.0010022122
0.0010016305
0.0010011672
0.001000801
0.0010005166
0.0010003015
0.0010001415
0.0010000096
0.00099995961
0.00099990608
0.00099987824
0.00099988429
0.00099993713
0.0010000106
0.001000034
1.1485256e-07
7.159118e-07
6.411028e-07
4.7013295e-07
5.1316521e-07
5.5906948e-07
6.3778899e-07
7.301182e-07
8.3745507e-07
9.5912354e-07
1.0962058e-06
1.2497463e-06
1.4210615e-06
1.6116129e-06
1.8230506e-06
2.0572206e-06
2.3161894e-06
2.6022365e-06
2.9179957e-06
3.2663577e-06
3.6506125e-06
4.0745173e-06
4.5424206e-06
5.0594413e-06
5.6317242e-06
6.2667915e-06
6.9740096e-06
7.7651955e-06
8.6624456e-06
9.6739827e-06
1.0829127e-05
1.2159096e-05
1.370325e-05
1.5511036e-05
1.7644266e-05
2.0179925e-05
2.3213558e-05
2.6863422e-05
3.1275585e-05
3.6630174e-05
4.3149048e-05
5.1105163e-05
6.0834094e-05
7.2750096e-05
8.7362887e-05
0.00010530131
0.00012734165
0.00015579851
0.00018939142
0.00023074173
0.00028168159
0.00034448398