/*--------------------------------*- C++ -*----------------------------------*\
| =========                 |                                                 |
| \\      /  F ield         | OpenFOAM: The Open Source CFD Toolbox           |
|  \\    /   O peration     | Version:  2512                                  |
|   \\  /    A nd           | Website:  www.openfoam.com                      |
|    \\/     M anipulation  |                                                 |
\*---------------------------------------------------------------------------*/
FoamFile
{
    version     2.0;
    format      ascii;
    arch        "LSB;label=32;scalar=64";
    class       volScalarField;
    location    "0.148";
    object      omega;
}
// * * * * * * * * * * * * * * * * * * * * * * * * * * * * * * * * * * * * * //

dimensions      [0 0 -1 0 0 0 0];

internalField   nonuniform List<scalar> 
16000
(
1454.6636
1943.2023
1079.6006
643.64331
452.90617
315.33098
239.07231
180.35701
145.35679
117.6886
100.07862
85.672842
75.026676
66.111071
58.838864
52.70624
47.527662
43.108866
39.310737
36.021919
33.158942
30.651226
28.440638
26.480861
24.734506
23.172493
21.770734
20.510625
19.376399
18.35367
17.429414
16.59336
15.837325
15.154383
14.538622
13.984546
13.486984
13.04105
12.64266
12.288378
11.974335
11.696449
11.451753
11.237547
11.050764
10.888281
10.747673
10.626639
10.522972
10.434577
10.35958
10.296339
10.243321
10.19918
10.162744
10.133115
10.109693
10.092228
10.08101
10.076684
10.077201
10.077281
10.076753
10.075854
10.07446
10.072515
10.06996
10.066753
10.062836
10.058108
10.052366
10.045205
10.036309
10.027282
10.020356
10.015294
10.012189
10.018068
10.013299
10.028074
1472.975
1921.4727
1070.6097
643.8036
453.22273
318.26363
240.1944
182.2611
146.2051
118.73407
100.63093
86.245988
75.393503
66.429469
59.06935
52.885567
47.659162
43.204807
39.37876
36.067728
33.187446
30.66706
28.44745
26.481585
24.731035
23.166337
21.762698
20.501156
19.366019
18.343141
17.41923
16.583657
15.828095
15.145504
14.530003
13.976163
13.478919
13.033328
12.635113
12.280955
11.967281
11.68979
11.445357
11.231399
11.045029
10.882969
10.742753
10.622096
10.518815
10.430812
10.356181
10.293289
10.240602
10.196774
10.160606
10.131159
10.107795
10.090168
10.078324
10.072809
10.07284
10.072869
10.072237
10.071244
10.069772
10.067762
10.065148
10.061883
10.057912
10.053137
10.047386
10.040303
10.031592
10.023115
10.016649
10.011809
10.009652
10.013015
10.013841
10.028897
1474.6586
1908.9668
1057.2179
639.93092
450.06664
318.51467
239.15967
182.46914
145.79102
118.91146
100.49463
86.272233
75.301647
66.34079
58.945596
52.748857
47.510443
43.049985
39.221994
35.911419
33.033564
30.517708
28.304133
26.345563
24.602776
23.046214
21.650616
20.396741
19.268913
18.253343
17.336667
16.507989
15.75891
15.082293
14.472302
13.923553
13.431118
12.990096
12.59603
12.245575
11.935536
11.661495
11.420146
11.208928
11.025204
10.865591
10.727573
10.608883
10.507374
10.420979
10.347765
10.286128
10.234542
10.191683
10.156354
10.127592
10.10474
10.087432
10.075593
10.06948
10.0689
10.068797
10.068012
10.06687
10.065267
10.063139
10.060418
10.057051
10.052982
10.048114
10.042294
10.035226
10.026641
10.018783
10.012819
10.008472
10.006791
10.00917
10.013465
10.028401
1488.6726
1905.5294
1046.1234
636.37979
446.5164
318.57519
237.83294
182.53732
145.23704
118.98997
100.30702
86.23706
75.168896
66.205087
58.781658
52.573609
47.326392
42.862206
39.034684
35.726846
32.85341
30.343945
28.138093
26.188462
24.454968
22.908004
21.521866
20.27702
19.157716
18.150562
17.242214
16.421478
15.679896
15.010212
14.406636
13.863813
13.376938
12.941215
12.552035
12.205888
11.900025
11.629971
11.39223
11.184162
11.003455
10.846633
10.711117
10.594655
10.495131
10.41053
10.338887
10.278633
10.228249
10.186442
10.152018
10.124
10.101706
10.084748
10.073
10.066581
10.065318
10.06503
10.06406
10.062737
10.060969
10.058694
10.055838
10.052342
10.048152
10.043167
10.037249
10.030179
10.021693
10.01446
10.009034
10.005217
10.003793
10.005823
10.012132
10.025066
1506.7935
1911.548
1038.0043
632.95047
442.21816
317.89582
235.82704
182.11658
144.31014
118.79236
99.932594
86.026396
74.898236
65.938056
58.503532
52.294964
47.049756
42.590743
38.771632
35.473631
32.610784
30.113175
27.919859
25.98352
24.263275
22.729546
21.356255
20.123617
19.015714
18.019583
17.122021
16.311542
15.579656
14.91897
14.323749
13.788651
13.308979
12.880088
12.497303
12.156791
11.856277
11.591309
11.358241
11.154213
10.977306
10.823987
10.691608
10.577925
10.480846
10.398441
10.328709
10.270125
10.221181
10.180618
10.147265
10.120135
10.098525
10.082032
10.070499
10.063938
10.062122
10.061587
10.060396
10.058856
10.056888
10.054432
10.051409
10.047755
10.043415
10.03829
10.032236
10.02514
10.016824
10.010223
10.005368
10.002075
10.000857
10.002862
10.01052
10.020377
1512.535
1926.3408
1034.0048
630.17952
438.33458
316.5907
233.34983
181.28878
143.1214
118.35819
99.416038
85.662302
74.509073
65.556824
58.125555
51.925931
46.691803
42.245563
38.441536
35.159441
32.312476
29.831457
27.65488
25.735525
24.032024
22.514765
21.157342
19.939787
18.845914
17.86318
16.97866
16.180558
15.46039
14.810603
14.225523
13.699815
13.228863
12.808185
12.433176
12.099558
11.805453
11.546532
11.319099
11.119911
10.947484
10.798287
10.669588
10.55916
10.464912
10.38504
10.317497
10.260817
10.213505
10.17434
10.142185
10.116054
10.095225
10.07928
10.068049
10.061472
10.059239
10.058407
10.056967
10.055179
10.05298
10.050313
10.047099
10.043262
10.038748
10.033465
10.027251
10.020089
10.012071
10.006109
10.00185
9.9990697
9.9980722
10.000164
10.00843
10.016695
1525.9584
1946.9307
1033.8462
627.52431
434.52949
314.65594
230.78954
180.08705
141.79998
117.69473
98.766681
85.14354
73.997376
65.058941
57.64412
51.463127
46.249059
41.82334
38.040987
34.78102
31.955427
29.49594
27.340618
25.441674
23.758627
22.261314
20.923007
19.723641
18.64667
17.67992
16.810899
16.027478
15.321229
14.6844
14.111392
13.596874
13.136288
12.725291
12.359493
12.034271
11.747693
11.495783
11.274967
11.081467
10.914197
10.769727
10.64524
10.538535
10.447483
10.370462
10.30537
10.250812
10.205307
10.167678
10.136835
10.111801
10.09184
10.076517
10.065657
10.059165
10.056639
10.05547
10.053753
10.05169
10.049234
10.04633
10.042899
10.038859
10.034149
10.028693
10.022311
10.015022
10.007508
10.002189
9.9985343
9.99626
9.995501
9.9977174
10.005807
10.012806
1545.035
1970.5677
1034.7194
624.50871
430.69433
312.07324
228.16787
178.64591
140.32386
116.81016
97.999508
84.477631
73.363155
64.445528
57.05853
50.905343
45.719882
41.322434
37.567536
34.335879
31.537271
29.104358
26.975188
25.098204
23.439483
21.965842
20.650166
19.472386
18.415506
17.467615
16.616825
15.850646
15.160758
14.539173
13.980373
13.479027
13.030631
12.630932
12.27581
11.961243
11.683364
11.439403
11.226156
11.039304
10.87783
10.738644
10.618873
10.516322
10.428791
10.3549
10.292483
10.24023
10.196682
10.160705
10.131263
10.107405
10.088385
10.073747
10.063307
10.056972
10.054265
10.052729
10.050713
10.048354
10.045617
10.042454
10.038788
10.034528
10.029605
10.02396
10.017428
10.009951
10.003181
9.9985058
9.995454
9.9936837
9.9931722
9.9954384
10.003121
10.009583
1554.5388
1994.954
1031.4723
620.69174
425.7518
308.79855
224.54175
176.80579
138.43035
115.74746
97.109044
83.662418
72.598673
63.71134
56.363384
50.24657
45.098351
40.73753
37.012973
33.815756
31.050101
28.649163
26.551939
24.705774
23.07585
21.630067
20.34084
19.18824
18.154797
17.228715
16.398905
15.652515
14.981404
14.377299
13.834769
13.348485
12.914001
12.527147
12.183864
11.880105
11.612259
11.377267
11.172527
10.993813
10.838761
10.705359
10.590835
10.492831
10.409109
10.338582
10.279023
10.229223
10.18775
10.153511
10.125536
10.10291
10.084887
10.070984
10.061003
10.054867
10.052065
10.050143
10.04781
10.045138
10.042104
10.038664
10.034746
10.030255
10.025108
10.019255
10.012615
10.005076
9.9991395
9.9951081
9.9926433
9.9913749
9.9911605
9.9934172
10.000503
10.006803
1566.9689
2018.1057
1021.8979
615.816
419.09822
305.11405
220.15348
174.52751
136.58819
114.49109
96.085521
82.69257
71.695914
62.848381
55.550567
49.47383
44.370426
40.055101
36.375495
33.221314
30.496297
28.133784
26.07419
24.263351
22.666989
21.253418
19.994645
18.871014
17.86457
16.963438
16.157441
15.433514
14.783721
14.19943
13.675311
13.206034
12.7872
12.414731
12.084722
11.79319
11.53644
11.311271
11.115606
10.944925
10.797001
10.669844
10.561433
10.468332
10.388724
10.321741
10.265188
10.217946
10.178632
10.146188
10.119718
10.098357
10.081364
10.068237
10.058742
10.052822
10.049982
10.047667
10.045004
10.04201
10.038665
10.034934
10.030752
10.026022
10.02065
10.014572
10.007839
10.000586
9.9954237
9.9920304
9.9901274
9.9893505
9.9894924
9.9917373
9.998073
10.004083
1580.2397
2039.2101
1011.6554
609.8977
410.79286
301.02286
215.61655
172.02721
134.62133
113.05554
94.915816
81.561088
70.643
61.835902
54.597257
48.581878
43.537128
39.278836
35.652913
32.550388
29.873705
27.556404
25.540655
23.770974
22.213231
20.836415
19.612346
18.521686
17.546025
16.673208
15.893652
15.19493
14.569062
14.006967
13.503416
13.053076
12.651602
12.294985
11.979491
11.70123
11.456594
11.24218
11.056288
10.894366
10.754036
10.633277
10.530633
10.442786
10.367875
10.304569
10.251173
10.206562
10.169456
10.138834
10.113878
10.093788
10.077839
10.065514
10.056528
10.050819
10.04796
10.045254
10.042255
10.038934
10.035273
10.031243
10.026787
10.021813
10.016222
10.009928
10.003049
9.9964875
9.9920697
9.9892986
9.9879257
9.9876171
9.9881454
9.9903966
9.9959553
10.001511
1592.6166
2059.6198
996.86208
602.32778
401.22813
296.51002
210.88279
169.27797
132.63208
111.44083
93.572181
80.237
69.401566
60.666739
53.506349
47.566824
42.594258
38.404905
34.843201
31.801799
29.181903
26.916995
24.951519
23.229018
21.715405
20.379755
19.194888
18.141436
17.200546
16.359768
15.607998
14.937252
14.337971
13.800501
13.319704
12.890231
12.507816
12.168492
11.86874
11.604781
11.373143
11.170998
10.995356
10.842589
10.710281
10.596287
10.499625
10.417056
10.346512
10.28701
10.237116
10.195218
10.160343
10.131543
10.108082
10.089243
10.074328
10.062815
10.054363
10.04885
10.045943
10.042862
10.039527
10.035879
10.031901
10.027568
10.022834
10.017611
10.011806
10.005357
9.9983296
9.9928006
9.9890981
9.9869265
9.9860488
9.9861739
9.9870874
9.9893763
9.9942495
9.9993665
1604.8597
2077.9467
978.23373
593.88069
391.37296
291.5975
206.07845
166.32881
130.58712
109.62585
91.988606
78.702621
67.975607
59.334003
52.270625
46.424303
41.538421
37.431262
33.945077
30.974576
28.420605
26.216014
24.307136
22.63827
21.174951
19.883245
18.74225
17.730463
16.828448
16.023985
15.305924
14.665835
14.095608
13.58499
13.128878
12.721894
12.359903
12.038956
11.755787
11.506828
11.28852
11.097963
10.933055
10.789808
10.66586
10.559338
10.468639
10.39146
10.325506
10.269696
10.222913
10.183998
10.151399
10.124407
10.102397
10.084766
10.07085
10.060134
10.052244
10.046923
10.043885
10.040451
10.036783
10.032816
10.028526
10.023892
10.018879
10.01341
10.007389
10.000861
9.9942095
9.9895292
9.9865177
9.9849165
9.9844997
9.9850158
9.986293
9.98867
9.9929925
9.9977211
1617.0092
2090.363
955.6999
584.85966
381.01872
286.3255
201.27986
163.18375
128.41585
107.51384
90.1475
76.945778
66.351276
57.82863
50.883361
45.149123
40.366255
36.355398
32.957394
30.067881
27.589798
25.4545
23.606391
21.997793
20.591819
19.353802
18.261968
17.296632
16.43775
15.673177
14.991569
14.384681
13.845317
13.363415
12.933604
12.550403
12.209917
11.908168
11.642135
11.408611
11.204131
11.025673
10.87151
10.737827
10.622159
10.522456
10.437721
10.365878
10.304913
10.252909
10.209114
10.172766
10.142661
10.117498
10.096886
10.080395
10.067425
10.057461
10.050148
10.045063
10.041747
10.037987
10.033996
10.029719
10.02513
10.020202
10.014912
10.009209
10.003
9.9963508
9.9905905
9.9866936
9.9843255
9.98326
9.9832736
9.9841336
9.9857255
9.9882538
9.99222
9.99665
1629.1997
2091.534
929.45657
575.19993
370.28191
280.72167
196.56112
159.7612
125.9964
105.10997
88.020227
74.947803
64.515422
56.14001
49.336859
43.735993
39.074719
35.175079
31.879697
29.078904
26.687073
24.631402
22.858423
21.318178
19.976514
18.79787
17.760508
16.845732
16.033861
15.312592
14.670382
14.098915
13.590371
13.138466
12.736132
12.3776
12.059357
11.777375
11.528786
11.31088
11.120318
10.954811
10.811284
10.687045
10.579737
10.48703
10.408038
10.341143
10.284544
10.236735
10.19594
10.161957
10.133965
10.110829
10.0916
10.076167
10.06408
10.054794
10.048022
10.043269
10.039508
10.035442
10.031142
10.026572
10.021698
10.016492
10.01093
10.004996
9.9986886
9.9922104
9.9874698
9.9842925
9.9825117
9.9819401
9.9823564
9.983517
9.9853526
9.9880798
9.991929
9.9961685
1641.563
2070.0307
899.7671
564.93063
359.19946
274.79149
191.91567
155.93273
123.25099
102.36866
85.576263
72.685374
62.451512
54.25669
47.623564
42.179435
37.661374
33.884858
30.70825
28.017292
25.725877
23.76119
22.072237
20.608579
19.337769
18.224715
17.246855
16.384496
15.622629
14.947229
14.346414
13.812481
13.33787
12.916379
12.542014
12.208415
11.91256
11.650455
11.419165
11.216704
11.03947
10.885522
10.752506
10.637465
10.538351
10.453145
10.37982
10.317682
10.26505
10.220908
10.183447
10.151754
10.125629
10.104229
10.086546
10.072111
10.06084
10.052158
10.045806
10.041318
10.037162
10.032799
10.028209
10.023361
10.018222
10.01276
10.006949
10.000788
9.9944028
9.9887316
9.9848269
9.982317
9.9810623
9.9809345
9.9817232
9.9831525
9.9851573
9.98808
9.9920191
9.9961829
1654.1795
2034.7761
868.80242
554.09706
347.82735
268.4471
187.03449
151.6694
120.06444
99.240775
82.780625
70.132837
60.143047
52.168851
45.737125
40.470622
36.119744
32.497678
29.460818
26.895588
24.719066
22.857144
21.261572
19.88238
18.685971
17.643173
16.729372
15.925144
15.215221
14.587337
14.028977
13.532992
13.092176
12.700829
12.353992
12.045027
11.771185
11.528759
11.314479
11.127079
10.962935
10.820119
10.697041
10.590723
10.499088
10.420481
10.353214
10.295669
10.246734
10.205898
10.171362
10.142207
10.117787
10.097918
10.081576
10.06824
10.057714
10.049592
10.043545
10.039196
10.0347
10.030052
10.02519
10.020085
10.014699
10.009005
10.002979
9.9966716
9.9903875
9.9857973
9.98265
9.9807474
9.9799614
9.9802205
9.9813394
9.9830157
9.9851484
9.9882097
9.992354
9.9965655
1666.876
2003.6217
837.25917
542.62285
336.16646
261.14717
181.98927
146.865
116.31922
95.66578
79.596386
67.265172
57.574667
49.869037
43.66657
38.623132
34.47352
31.031077
28.15596
25.734023
23.685847
21.937808
20.440605
19.152772
18.038711
17.069522
16.221934
15.476987
14.819536
14.239138
13.723199
13.264898
12.857493
12.495391
12.173825
11.888682
11.635985
11.412642
11.215808
11.042777
10.89127
10.759012
10.645174
10.547097
10.462524
10.389919
10.327806
10.274825
10.22974
10.191892
10.160012
10.133095
10.110507
10.09197
10.076846
10.064526
10.05469
10.047117
10.04131
10.036902
10.032125
10.027208
10.022093
10.01675
10.01114
10.005238
9.999035
9.9926556
9.9871575
9.983363
9.9809014
9.9795527
9.9791891
9.979777
9.9811664
9.9830586
9.9853318
9.9885008
9.9927685
9.9970908
1679.1524
1955.6784
804.63497
530.20197
324.11205
252.65416
176.58004
141.3976
111.90144
91.579977
75.989408
64.062611
54.729998
47.345878
41.440626
36.662692
32.749585
29.513876
26.820834
24.558108
22.646036
21.021407
19.63287
18.440046
17.410115
16.515731
15.734625
15.048827
14.443046
13.907421
13.432681
13.010756
12.635533
12.301971
12.005768
11.743017
11.510201
11.304312
11.122801
10.963391
10.824021
10.702651
10.597353
10.506862
10.428851
10.361844
10.304483
10.25558
10.214064
10.178965
10.149488
10.124646
10.10379
10.086428
10.072344
10.060866
10.051736
10.044697
10.03918
10.034458
10.029453
10.024286
10.018935
10.013373
10.007561
10.001477
9.9952027
9.9890302
9.984532
9.9814184
9.9795359
9.978686
9.9787142
9.9795802
9.9811744
9.9832255
9.9856422
9.988902
9.9931562
9.9975303
1690.2051
1893.8249
770.35744
516.33014
310.89451
242.79854
170.48414
135.12098
106.70841
86.925987
71.937752
60.511122
51.632001
44.652501
39.100085
34.63151
30.988469
27.982635
25.484157
23.393178
21.630298
20.134036
18.856499
17.759855
16.813694
15.9928
15.276045
14.645889
14.090556
13.599193
13.163412
12.775904
12.430915
12.123824
11.850902
11.608873
11.39455
11.205018
11.03789
10.890931
10.762302
10.650393
10.553809
10.470187
10.398162
10.336274
10.283239
10.237946
10.19944
10.16717
10.139806
10.116779
10.097452
10.081339
10.068176
10.057418
10.048839
10.042222
10.036953
10.031915
10.026706
10.021319
10.015747
10.00998
10.003998
9.9977624
9.9914294
9.9861957
9.9824471
9.9799353
9.9785179
9.9780841
9.978489
9.9795917
9.9813361
9.9834798
9.9860097
9.9893625
9.9935555
9.9978941
1698.8256
1835.9841
733.46656
500.39924
296.78507
231.36716
163.22897
127.87011
100.66987
81.682829
67.445214
56.660475
48.349586
41.852965
36.707829
32.584395
29.23721
26.474475
24.186026
22.273025
20.661805
19.295058
18.127948
17.125441
16.259915
15.508889
14.851988
14.275839
13.767496
13.317043
12.917362
12.561708
12.244769
11.962201
11.71058
11.487209
11.289629
11.114892
10.960913
10.825523
10.706868
10.603993
10.514518
10.437166
10.370504
10.313239
10.264152
10.222217
10.186578
10.156498
10.131043
10.10961
10.091642
10.076667
10.064338
10.054222
10.046082
10.039741
10.034619
10.029318
10.023919
10.018346
10.012581
10.006613
10.000475
9.9942544
9.9882076
9.9839005
9.9808407
9.9788733
9.9778405
9.977682
9.9784514
9.9797568
9.9816173
9.9838123
9.9864071
9.9898245
9.9939487
9.9981618
1702.2364
1775.0211
693.73341
480.6763
281.56314
218.04076
154.34713
119.52216
93.802001
75.912661
62.607452
52.626691
44.984249
39.035905
34.338457
30.582122
27.540316
25.03443
22.958164
21.223064
19.761086
18.520086
17.459222
16.546448
15.756512
15.069407
14.468972
13.941653
13.476469
13.06328
12.696227
12.369343
12.077834
11.817686
11.585557
11.37884
11.196161
11.034523
10.892154
10.767222
10.657925
10.562534
10.479623
10.407832
10.345907
10.292714
10.247156
10.208117
10.175123
10.147025
10.123224
10.10315
10.086338
10.0724
10.060814
10.051292
10.043556
10.037374
10.032241
10.026732
10.021144
10.015405
10.009496
10.003374
9.9970421
9.9907454
9.9857118
9.9820585
9.979595
9.9781319
9.9775019
9.9774691
9.9785346
9.9800152
9.9819667
9.9842101
9.9868538
9.990289
9.994342
9.9983775
1695.6815
1708.2787
650.62203
454.83335
265.0523
202.48657
143.6196
110.12665
86.275879
69.757183
57.617242
48.559919
41.655376
36.295276
32.067217
28.686403
25.949054
23.697603
21.828402
20.264011
18.943404
17.820217
16.858167
16.028679
15.309101
14.681463
14.131418
13.647218
13.219131
12.839272
12.501125
12.199619
11.930505
11.690294
11.476028
11.285169
11.11554
10.965332
10.832809
10.716422
10.614697
10.526121
10.449015
10.382199
10.32445
10.274741
10.232406
10.196088
10.165083
10.138742
10.116417
10.097513
10.081752
10.068544
10.057588
10.04858
10.041279
10.03527
10.029893
10.02424
10.018472
10.012555
10.006501
10.000322
9.9940641
9.9880098
9.9837419
9.9806547
9.9786424
9.9775528
9.9772211
9.9776642
9.9786888
9.9803166
9.9823315
9.9846327
9.9873381
9.9907543
9.9946846
9.9985021
1673.1362
1630.6019
604.37143
422.16213
247.27882
184.53616
131.30493
100.03441
78.453127
63.545039
52.69417
44.62225
38.482523
33.720698
29.962514
26.950697
24.504768
22.49437
20.818915
19.412036
18.22042
17.203656
16.330189
15.575042
14.918191
14.34353
13.838266
13.392524
12.997658
12.646724
12.333729
12.054188
11.8043
11.580956
11.381539
11.203808
11.045787
10.9057
10.781927
10.672975
10.577537
10.494787
10.422719
10.360261
10.306305
10.259838
10.219952
10.185815
10.156569
10.131654
10.11066
10.092841
10.077807
10.06521
10.054738
10.046153
10.039089
10.033212
10.027666
10.021908
10.016016
10.009952
10.003715
9.9973486
9.9910922
9.9859804
9.982247
9.9796544
9.9780321
9.9772619
9.9770834
9.9777854
9.9789368
9.9806253
9.9826708
9.9850151
9.9877891
9.9912037
9.9950227
9.9986327
1626.4499
1537.957
556.177
383.44566
229.35922
164.5007
118.11749
89.878624
70.786873
57.592887
48.055782
40.967859
35.577761
31.393082
28.082598
25.419522
23.245627
21.448587
19.946894
18.679597
17.601295
16.677204
15.88025
15.189002
14.586188
14.057562
13.590676
13.177589
12.810613
12.4843
12.192663
11.931774
11.698221
11.489214
11.302394
11.135739
10.987465
10.855967
10.739768
10.637494
10.547854
10.469627
10.401634
10.342589
10.291519
10.247457
10.20959
10.177367
10.149728
10.126135
10.106049
10.089022
10.07463
10.062509
10.052457
10.044085
10.037168
10.031327
10.025622
10.019768
10.013797
10.007682
10.001418
9.9950556
9.9889037
9.9844298
9.981149
9.9789439
9.9776392
9.9771093
9.9770154
9.9779746
9.9792088
9.980929
9.9829743
9.9853259
9.9881238
9.9915204
9.9952681
9.9987155
1547.6492
1434.7726
507.16917
343.47184
205.44108
145.2345
104.98739
80.333201
63.719496
52.203989
43.910302
37.746575
33.047728
29.385346
26.473795
24.118794
22.185084
20.576582
19.223843
18.075929
17.093823
16.247818
15.51464
14.875825
14.316495
13.82452
13.389909
13.004383
12.661224
12.354838
12.080588
11.834827
11.614492
11.417054
11.24037
11.082591
10.942074
10.817324
10.706952
10.609646
10.524183
10.449482
10.384833
10.328629
10.280011
10.238066
10.201984
10.171027
10.144533
10.121857
10.102516
10.086081
10.072265
10.060571
10.050746
10.042534
10.035681
10.029814
10.023948
10.017961
10.011864
10.005646
9.999324
9.9930285
9.9873878
9.9833243
9.980389
9.9784601
9.9773849
9.9770367
9.9773124
9.9781434
9.9794844
9.9812146
9.9832562
9.9855956
9.9883507
9.9916273
9.9952341
9.9986289
1439.4936
1390.0421
461.36093
295.95826
181.73419
127.2087
93.147094
71.894025
57.61189
47.663443
40.469658
35.105314
30.993015
27.765755
25.181695
23.076999
21.337573
19.881823
18.649202
17.597551
16.693227
15.910594
15.22941
14.633488
14.109697
13.647304
13.237424
12.872746
12.547331
12.25671
11.995965
11.76191
11.551736
11.36314
11.194165
11.043116
10.908488
10.788909
10.6831
10.589847
10.507978
10.436347
10.373833
10.319504
10.272413
10.231717
10.196645
10.166535
10.14092
10.118965
10.100235
10.084286
10.070748
10.0593
10.049654
10.041557
10.034752
10.028861
10.022883
10.016787
10.010572
10.004239
9.9978346
9.9915743
9.986403
9.9826296
9.9799511
9.9782239
9.9773079
9.9770296
9.9774646
9.9783664
9.9797379
9.9814809
9.9835306
9.9858802
9.9886039
9.9917538
9.9951877
9.9985234
1313.0228
1218.9105
421.8196
253.75351
159.75347
112.21119
83.362825
65.086837
52.788777
44.165495
37.882546
33.154628
29.496807
26.600406
24.261512
22.341372
20.742896
19.39649
18.251144
17.268669
16.420041
15.682666
15.038652
14.47355
13.975487
13.534593
13.14284
12.793487
12.480972
12.2007
11.948909
11.72246
11.518774
11.335689
11.171371
11.024228
10.892841
10.775915
10.672244
10.580698
10.500256
10.430188
10.368938
10.31567
10.269468
10.229512
10.195047
10.16539
10.139932
10.118137
10.09952
10.083662
10.070192
10.058791
10.04918
10.041107
10.034319
10.028432
10.022446
10.016325
10.010067
10.003672
9.9971932
9.9909002
9.9859555
9.9823318
9.9797878
9.9781778
9.9773813
9.9771786
9.9776248
9.9785699
9.9799526
9.9816996
9.9837582
9.9861182
9.988812
9.9918522
9.9951392
9.9984379
1202.5431
1094.8619
389.56442
223.27429
143.34098
101.18798
76.117953
60.128197
49.338532
41.707782
36.091972
31.825824
28.494899
25.835014
23.670434
21.880784
20.381255
19.110666
18.02393
17.087158
16.274379
15.565311
14.943826
14.396968
13.914617
13.486458
13.105243
12.764602
12.459301
12.184988
11.938074
11.715598
11.515115
11.334579
11.17226
11.026651
10.896415
10.780323
10.677225
10.586024
10.505667
10.43514
10.373484
10.319764
10.273113
10.232719
10.197838
10.167793
10.141974
10.119837
10.100903
10.084748
10.071002
10.059343
10.049491
10.041196
10.03421
10.028194
10.022312
10.016265
10.010108
10.003827
9.9974683
9.9912601
9.9862074
9.9825409
9.9799607
9.9783296
9.9775236
9.9773207
9.9777708
9.9787082
9.9800844
9.981828
9.9838953
9.986266
9.9889395
9.9919017
9.9950873
9.9983765
1156.6982
1040.9452
365.75154
206.36415
132.56268
93.684114
70.699505
56.171252
46.386196
39.456607
34.341395
30.437991
27.377373
24.923301
22.91858
21.255154
19.856667
18.667877
17.64798
16.766269
15.999202
15.328384
14.739149
14.219564
13.759748
13.351427
12.987591
12.662335
12.370696
12.108534
11.872416
11.659506
11.467459
11.294325
11.138458
10.998439
10.873011
10.761029
10.661421
10.573168
10.495286
10.426825
10.366871
10.314551
10.269041
10.229572
10.195434
10.165981
10.140628
10.118853
10.100191
10.084236
10.07063
10.059059
10.049253
10.040966
10.033959
10.027895
10.021943
10.015835
10.009621
10.00329
9.9969003
9.9907203
9.98592
9.9823768
9.9798887
9.9783071
9.9775076
9.9772828
9.97781
9.9787233
9.9800935
9.9818304
9.9839008
9.986278
9.9889456
9.9918779
9.9950274
9.9983344
37061.434
79708.398
39492.638
10040.297
1235.0878
612.46537
435.51912
350.51629
288.78241
234.63931
191.4667
158.64357
134.1589
115.93603
101.985
90.640495
81.0228
72.777472
65.696336
59.585749
54.273078
49.622062
45.527296
41.903544
38.685759
35.809475
33.229426
30.905754
28.806692
26.907155
25.18575
23.623418
22.203511
20.911374
19.735503
18.666226
17.694841
16.813635
16.015565
15.294219
14.644011
14.059404
13.53535
13.067294
12.650761
12.281526
11.955771
11.66947
11.41895
11.200863
11.011941
10.849072
10.709281
10.590048
10.48886
10.403487
10.333557
10.278953
10.23962
10.218111
10.210981
10.209098
10.207198
10.204512
10.201388
10.197866
10.193495
10.186924
10.177627
10.167521
10.152375
10.140822
10.111926
10.097714
10.068842
10.073944
10.020564
10.043792
9.9894311
10.0109
22242.385
69740.663
27827.519
4630.1244
941.47788
532.67398
399.43767
321.50641
263.03794
211.9479
174.00107
145.35615
124.2167
108.40819
96.043194
85.711459
76.864248
69.271627
62.73819
57.075957
52.130343
47.78387
43.944245
40.53566
37.496351
34.773313
32.325156
30.114601
28.1136
26.299586
24.652821
23.155639
21.792704
20.550529
19.41882
18.388627
17.451829
16.60126
15.83031
15.132982
14.504055
13.938224
13.430746
12.977306
12.573601
12.215611
11.899687
11.62191
11.378779
11.167078
10.98364
10.825456
10.689658
10.573831
10.475547
10.392578
10.324157
10.270877
10.232764
10.212488
10.20597
10.204266
10.202392
10.199765
10.196721
10.193276
10.189275
10.183386
10.174759
10.165065
10.150482
10.139017
10.110969
10.097057
10.068257
10.073892
10.020461
10.043996
9.9900678
10.011462
24175.84
49423.336
16457.988
2358.5135
832.63326
506.14857
387.88179
306.24448
250.59971
201.26049
166.55045
139.43682
119.70233
104.79481
93.010061
83.072522
74.579677
67.300412
61.030429
55.587732
50.828002
46.641163
42.939269
39.649698
36.711705
34.078063
31.708626
29.56707
27.627364
25.867854
24.269494
22.815288
21.490576
20.282456
19.181324
18.178538
17.266295
16.43774
15.686499
15.006817
14.39369
13.84193
13.347
12.904724
12.510905
12.161656
11.853438
11.582396
11.345158
11.13859
10.959594
10.805238
10.672747
10.559796
10.463883
10.382951
10.315806
10.263546
10.226369
10.207033
10.200971
10.199423
10.197594
10.195039
10.192078
10.188711
10.184884
10.179697
10.171775
10.162515
10.148528
10.137164
10.110028
10.09631
10.06761
10.073633
10.020372
10.04417
9.9907864
10.01213
32010.171
27464.554
8478.6001
1493.1289
760.20798
482.44236
374.30058
291.3608
239.41619
190.72794
159.55222
133.60888
115.38329
101.32016
90.110309
80.563494
72.417293
65.432516
59.408716
54.171825
49.586385
45.548929
41.975762
38.797492
35.9566
33.405256
31.109471
29.033035
27.151478
25.443838
23.891731
22.478767
21.190897
20.015752
18.944374
17.968355
17.080198
16.273324
15.541565
14.879393
14.281996
13.744288
13.261933
12.830874
12.447013
12.106592
11.806174
11.541962
11.310712
11.109369
10.934903
10.784462
10.655424
10.545327
10.451855
10.37301
10.307335
10.256119
10.219911
10.201517
10.195934
10.194547
10.192767
10.190291
10.187419
10.184134
10.180355
10.175753
10.168566
10.159768
10.146406
10.135153
10.108949
10.095459
10.066897
10.073189
10.020294
10.044322
9.9915305
10.01272
36406.675
20080.621
5444.0244
1268.0393
722.41906
461.39116
363.51669
279.00851
231.11226
182.60156
154.48314
128.98129
112.08039
98.544621
87.762933
78.5072
70.635981
63.880983
58.049879
52.975344
48.5288
44.611481
41.142671
38.055351
35.293957
32.813252
30.57734
28.555812
26.723727
25.060537
23.54836
22.171259
20.915667
19.769627
18.724716
17.772641
16.906175
16.118947
15.404945
14.758826
14.175929
13.651238
13.180596
12.760033
12.385529
12.053442
11.760417
11.502703
11.277175
11.080842
10.910738
10.764092
10.638365
10.531052
10.439961
10.363154
10.299039
10.248807
10.213529
10.195894
10.190894
10.189659
10.187934
10.185543
10.182762
10.179562
10.175866
10.171589
10.165163
10.156854
10.144143
10.133016
10.10774
10.094522
10.066114
10.072571
10.020231
10.044452
9.9922728
10.013309
38522.76
16949.412
3887.7094
1186.9019
697.76898
441.88953
355.61473
268.85612
224.57479
175.88786
150.43743
124.99517
109.32942
96.127065
85.71906
76.704743
69.07036
62.509639
56.842727
51.907419
47.580672
43.767364
40.389212
37.381196
34.689535
32.270386
30.087957
28.115125
26.327033
24.703608
23.227327
21.882627
20.656347
19.536875
18.516259
17.586255
16.739886
15.970947
15.273551
14.642518
14.073305
13.560948
13.101455
12.690919
12.32539
12.001326
11.715441
11.464022
11.244059
11.052617
10.886797
10.743939
10.62138
10.516806
10.428069
10.353279
10.29084
10.241552
10.207184
10.190345
10.185861
10.184757
10.183093
10.180793
10.178107
10.174993
10.171377
10.167221
10.161553
10.153761
10.141725
10.130738
10.106365
10.093493
10.065258
10.071847
10.02018
10.044558
9.993014
10.013853
39857.429
14159.535
3114.8969
1136.6834
680.55466
427.83459
349.7634
260.51099
219.43394
170.44491
147.18258
121.59852
107.04561
94.02763
83.946772
75.127454
67.694533
61.297118
55.769578
50.953163
46.7294
43.005975
39.706542
36.767715
34.137153
31.772319
29.638759
27.707978
25.958907
24.371081
22.927113
21.61172
20.412083
19.31688
18.318574
17.408909
16.581158
15.829234
15.147355
14.530483
13.974169
13.473483
13.024588
12.623615
12.266677
11.950324
11.671321
11.425991
11.211437
11.024776
10.863218
10.723937
10.604501
10.502626
10.41621
10.343416
10.28273
10.234369
10.200892
10.184883
10.180832
10.179849
10.178254
10.176048
10.173459
10.170433
10.166899
10.162806
10.157738