/*--------------------------------*- C++ -*----------------------------------*\
| =========                 |                                                 |
| \\      /  F ield         | OpenFOAM: The Open Source CFD Toolbox           |
|  \\    /   O peration     | Version:  2512                                  |
|   \\  /    A nd           | Website:  www.openfoam.com                      |
|    \\/     M anipulation  |                                                 |
\*---------------------------------------------------------------------------*/
FoamFile
{
    version     2.0;
    format      ascii;
    arch        "LSB;label=32;scalar=64";
    class       volScalarField;
    location    "0.148";
    object      p;
}
// * * * * * * * * * * * * * * * * * * * * * * * * * * * * * * * * * * * * * //

dimensions      [1 -1 -2 0 0 0 0];

internalField   nonuniform List<scalar> 
16000
(
89589.939
89715.81
89727.519
89861.77
89888.145
90015.14
90065.782
90182.231
90256.086
90366.973
90458.998
90569.847
90675.902
90791.091
90908.188
91030.745
91157.384
91288.711
91424.609
91565.167
91710.399
91860.313
92014.892
92174.097
92337.864
92506.098
92678.676
92855.443
93036.21
93220.757
93408.827
93600.126
93794.33
93991.077
94189.975
94390.6
94592.503
94795.209
94998.226
95201.046
95403.154
95604.031
95803.163
96000.042
96194.18
96385.107
96572.381
96755.59
96934.359
97108.35
97277.264
97440.847
97598.885
97751.207
97897.683
98038.223
98172.775
98301.32
98423.874
98540.485
98651.225
98756.188
98855.492
98949.274
99037.683
99120.888
99199.064
99272.404
99341.107
99405.381
99465.436
99521.498
99573.814
99622.578
99667.912
99710.405
99755.337
99766.075
99873.516
99774.037
89222.801
89365.591
89375.05
89521.22
89549.077
89686.99
89739.934
89867.647
89945.333
90066.332
90164.78
90284.602
90399.02
90523.131
90649.555
90781.672
90918.289
91059.891
91206.4
91357.872
91514.304
91675.676
91841.943
92013.029
92188.831
92369.212
92554.004
92742.999
92935.957
93132.599
93332.608
93535.627
93741.268
93949.102
94158.673
94369.492
94581.048
94792.81
95004.234
95214.767
95423.857
95630.958
95835.539
96037.086
96235.113
96429.168
96618.834
96803.733
96983.532
97157.946
97326.732
97489.695
97646.685
97797.596
97942.362
98080.953
98213.378
98339.674
98459.906
98574.167
98682.569
98785.24
98882.326
98973.985
99060.387
99141.708
99218.134
99289.857
99357.074
99419.987
99478.804
99533.746
99585.032
99632.802
99677.363
99720.012
99758.188
99787.198
99861.988
99792.537
88887.441
89045.691
89054.917
89214.347
89242.399
89394.063
89448.818
89588.876
89671.529
89803.095
89909.388
90038.871
90162.937
90296.998
90433.943
90576.806
90724.596
90877.674
91035.975
91199.515
91368.263
91542.165
91721.139
91905.068
92093.803
92287.161
92484.916
92686.804
92892.521
93101.719
93314.009
93528.961
93746.11
93964.951
94184.953
94405.557
94626.185
94846.246
95065.143
95282.285
95497.089
95708.991
95917.455
96121.975
96322.088
96517.373
96707.456
96892.015
97070.781
97243.535
97410.109
97570.384
97724.29
97871.794
98012.907
98147.67
98276.157
98398.467
98514.719
98625.052
98729.622
98828.591
98922.131
99010.422
99093.649
99171.998
99245.66
99314.827
99379.691
99440.447
99497.294
99550.439
99600.069
99646.342
99689.739
99730.794
99766.529
99802.288
99856.732
99810.07
88589.023
88758.122
88768.007
88942.894
88970.443
89138.387
89195.442
89349.818
89438.331
89581.979
89697.558
89838.016
89973.298
90118.702
90267.613
90422.611
90582.915
90748.766
90920.109
91096.924
91279.153
91466.71
91659.471
91857.276
92059.923
92267.165
92478.712
92694.223
92913.315
93135.553
93360.46
93587.517
93816.166
94045.816
94275.849
94505.63
94734.51
94961.841
95186.981
95409.305
95628.212
95843.138
96053.559
96259.001
96459.042
96653.318
96841.523
97023.413
97198.801
97367.559
97529.612
97684.933
97833.541
97975.495
98110.886
98239.835
98362.487
98479.003
98589.56
98694.344
98793.55
98887.375
98976.017
99059.672
99138.539
99212.812
99282.682
99348.337
99409.963
99467.742
99521.859
99572.496
99619.816
99664.022
99705.548
99744.308
99778.739
99815.72
99857.523
99827.096
88330.57
88514.507
88521.272
88714.801
88741.257
88927.451
88986.659
89157.093
89252.66
89409.744
89536.322
89688.866
89836.788
89994.688
90156.72
90324.98
90498.904
90678.648
90864.161
91055.395
91252.258
91454.618
91662.296
91875.066
92092.651
92314.721
92540.892
92770.727
93003.736
93239.38
93477.072
93716.185
93956.056
94195.995
94435.296
94673.242
94909.122
95142.236
95371.911
95597.506
95818.427
96034.132
96244.139
96448.03
96645.457
96836.139
97019.869
97196.502
97365.961
97528.226
97683.331
97831.356
97972.421
98106.68
98234.313
98355.521
98470.519
98579.531
98682.786
98780.516
98872.951
98960.317
99042.832
99120.706
99194.146
99263.349
99328.501
99389.784
99447.372
99501.434
99552.133
99599.621
99644.053
99685.647
99724.667
99760.791
99793.767
99829.475
99862.356
99844.41
88114.813
88316.263
88321.194
88535.599
88561.105
88767.553
88829.161
89017.402
89121.231
89292.424
89431.155
89596.26
89757.741
89929.006
90105.179
90287.866
90476.679
90671.688
90872.812
91079.946
91292.933
91511.564
91735.572
91964.636
92198.372
92436.336
92678.026
92922.877
93170.271
93419.539
93669.966
93920.802
94171.27
94420.578
94667.931
94912.542
95153.647
95390.519
95622.474
95848.889
96069.206
96282.941
96489.689
96689.126
96881.011
97065.182
97241.556
97410.119
97570.921
97724.07
97869.721
98008.071
98139.346
98263.798
98381.694
98493.312
98598.932
98698.836
98793.299
98882.589
98966.966
99046.677
99121.953
99193.013
99260.064
99323.3
99382.901
99439.036
99491.862
99541.532
99588.181
99631.933
99672.94
99711.387
99747.341
99780.537
99811.604
99844.428
99870.584
99862.795
87941.941
88164.216
88166.463
88405.456
88430.067
88660.738
88725.376
88932.851
89044.843
89229.599
89381.597
89560.103
89736.704
89923.051
90115.241
90314.37
90520.131
90732.485
90951.281
91176.327
91407.368
91644.089
91886.108
92132.975
92384.171
92639.108
92897.132
93157.528
93419.522
93682.296
93944.994
94206.734
94466.625
94723.777
94977.322
95226.424
95470.294
95708.21
95939.52
96163.658
96380.147
96588.608
96788.757
96980.408
97163.465
97337.919
97503.84
97661.365
97810.693
97952.069
98085.778
98212.133
98331.467
98444.123
98550.449
98650.79
98745.484
98834.856
98919.218
98998.866
99074.077
99145.11
99212.201
99275.571
99335.419
99391.931
99445.273
99495.598
99543.046
99587.743
99629.795
99669.306
99706.419
99741.237
99773.664
99803.693
99832.416
99861.273
99881.788
99883.139
87806.38
88053.128
88051.193
88319.757
88341.181
88598.21
88665.945
88892.597
89016.568
89217.706
89386.863
89581.754
89776.604
89981.022
90192.071
90410.425
90635.815
90868.101
91107.045
91352.345
91603.625
91860.433
92122.235
92388.421
92658.298
92931.102
93205.995
93482.082
93758.415
94034.012
94307.868
94578.976
94846.338
95108.994
95366.029
95616.597
95859.934
96095.37
96322.344
96540.402
96749.209
96948.543
97138.295
97318.457
97489.12
97650.456
97802.713
97946.196
98081.256
98208.282
98327.684
98439.886
98545.314
98644.393
98737.536
98825.142
98907.59
98985.237
99058.416
99127.436
99192.583
99254.115
99312.265
99367.244
99419.24
99468.423
99514.94
99558.923
99600.491
99639.742
99676.749
99711.602
99744.422
99775.195
99803.731
99830.404
99856.32
99880.349
99896.135
99906.021
87707.319
87982.495
87976.257
88280.998
88296.849
88582.728
88656.467
88905.363
89046.318
89266.1
89455.901
89669.971
89886.043
90111.567
90344.433
90584.967
90832.869
91087.875
91349.616
91617.641
91891.407
92170.278
92453.526
92740.331
93029.785
93320.907
93612.645
93903.901
94193.538
94480.407
94763.365
95041.296
95313.134
95577.886
95834.65
96082.631
96321.157
96549.688
96767.822
96975.295
97171.975
97357.86
97533.062
97697.796
97852.367
97997.151
98132.58
98259.131
98377.307
98487.625
98590.609
98686.774
98776.624
98860.645
98939.294
99013.005
99082.18
99147.189
99208.372
99266.038
99320.464
99371.901
99420.566
99466.654
99510.334
99551.753
99591.036
99628.291
99663.612
99697.061
99728.688
99758.571
99786.786
99813.181
99837.576
99860.769
99883.396
99901.914
99913.874
99931.884
87648.183
87956.505
87946.864
88288.799
88304.003
88622.574
88707.889
88982.004
89142.828
89383.317
89597.409
89833.853
90074.425
90324.469
90582.478
90848.471
91122.044
91402.764
91690.078
91983.33
92281.751
92584.464
92890.484
93198.729
93508.032
93817.157
94124.814
94429.687
94730.454
95025.818
95314.527
95595.41
95867.394
96129.531
96381.016
96621.201
96849.602
97065.901
97269.944
97461.732
97641.406
97809.233
97965.589
98110.935
98245.803
98370.774
98486.461
98593.494
98692.508
98784.129
98868.966
98947.601
99020.589
99088.449
99151.661
99210.67
99265.88
99317.658
99366.332
99412.195
99455.509
99496.5
99535.364
99572.271
99607.365
99640.766
99672.573
99702.868
99731.712
99759.137
99785.169
99809.879
99833.268
99855.054
99875.186
99894.841
99913.722
99926.311
99935.359
99960.951
87635.99
87983.674
87970.039
88352.653
88371.758
88726.523
88826.463
89127.887
89314.356
89578.388
89821.03
90083.817
90352.679
90631.124
90918.011
91213.071
91515.719
91825.289
92140.969
92461.819
92786.768
93114.622
93444.076
93773.733
94102.123
94427.729
94749.016
95064.462
95372.593
95672.015
95961.447
96239.752
96505.961
96759.293
96999.165
97225.198
97437.21
97635.211
97819.381
97990.055
98147.697
98292.875
98426.242
98548.507
98660.416
98762.733
98856.227
98941.649
99019.731
99091.171
99156.63
99216.725
99272.029
99323.065
99370.312
99414.201
99455.119
99493.41
99529.375
99563.281
99595.359
99625.804
99654.784
99682.435
99708.871
99734.183
99758.442
99781.699
99803.983
99825.295
99845.65
99865.098
99883.538
99900.599
99916.482
99932.592
99947.319
99953.888
99961.041
99993.484
87677.534
88072.01
88054.555
88485.303
88509.56
88903.704
89023.04
89353.681
89571.525
89862.471
90138.142
90431.889
90733.393
91044.643
91364.607
91692.687
92028.016
92369.588
92716.233
93066.628
93419.308
93772.685
94125.072
94474.71
94819.803
95158.557
95489.22
95810.123
96119.728
96416.662
96699.755
96968.061
97220.881
97457.762
97678.498
97883.114
98071.847
98245.121
98403.514
98547.734
98678.58
98796.922
98903.667
98999.742
99086.07
99163.554
99233.068
99295.442
99351.459
99401.845
99447.274
99488.361
99525.663
99559.684
99590.871
99619.623
99646.29
99671.176
99694.546
99716.626
99737.608
99757.652
99776.886
99795.413
99813.313
99830.644
99847.448
99863.745
99879.528
99894.776
99909.499
99923.706
99937.179
99949.533
99961.315
99973.898
99984.105
99984.833
99991.216
100029.84
87773.55
88223.515
88202.726
88688.171
88720.995
89158.953
89305.598
89668.233
89924.867
90247.721
90561.775
90892.112
91231.447
91580.553
91938.263
92303.555
92675.134
93051.53
93431.09
93811.998
94192.305
94569.959
94942.844
95308.826
95665.807
96011.775
96344.867
96663.416
96966.002
97251.48
97519.009
97768.056
97998.393
98210.078
98403.43
98578.994
98737.5
98879.832
99006.981
99120.012
99220.033
99308.166
99385.52
99453.177
99512.173
99563.493
99608.053
99646.708
99680.241
99709.363
99734.72
99756.889
99776.384
99793.661
99809.117
99823.099
99835.904
99847.789
99858.966
99869.617
99879.889
99889.898
99899.733
99909.459
99919.121
99928.746
99938.342
99947.899
99957.379
99966.746
99976.004
99985.097
99993.694
100001.5
100009.45
100018.53
100023.92
100019.3
100026.15
100070
87930.479
88446.291
88423.134
88970.91
89018.37
89504.305
89687.477
90085.643
90388.939
90750.088
91108.663
91482.109
91865.234
92257.733
92658.034
93064.522
93475.312
93888.321
94301.28
94711.778
95117.303
95515.295
95903.217
96278.626
96639.243
96983.033
97308.259
97613.535
97897.853
98160.591
98401.513
98620.734
98818.694
98996.104
99153.902
99293.199
99415.229
99521.307
99612.787
99691.026
99757.359
99813.076
99859.406
99897.504
99928.445
99953.218
99972.728
99987.793
99999.149
100007.45
100013.28
100017.16
100019.52
100020.75
100021.18
100021.1
100020.75
100020.31
100019.96
100019.81
100019.96
100020.5
100021.46
100022.88
100024.75
100027.09
100029.86
100033.03
100036.53
100040.32
100044.39
100048.59
100052.52
100056.09
100060.54
100066.14
100066.58
100057.51
100066.07
100113.52
88155.245
88749.97
88726.931
89345.349
89414.848
89952.733
90183.672
90622.519
90981.498
91389.381
91799.927
92223.968
92657.385
93098.821
93546.029
93996.63
94447.967
94897.188
95341.284
95777.157
96201.711
96611.94
97005.039
97378.494
97730.176
98058.396
98361.952
98640.133
98892.712
99119.909
99322.337
99500.944
99656.943
99791.746
99906.902
100004.04
100084.81
100150.87
100203.82
100245.2
100276.45
100298.92
100313.87
100322.44
100325.66
100324.45
100319.66
100312.02
100302.18
100290.7
100278.08
100264.73
100251.03
100237.28
100223.72
100210.58
100198.01
100186.16
100175.13
100165
100155.8
100147.58
100140.34
100134.07
100128.74
100124.33
100120.78
100118.01
100115.96
100114.58
100113.82
100113.44
100113.02
100112.79
100114.14
100116.23
100111.76
100099.61
100111.02
100159.85
88454.876
89144.004
89123.524
89822.265
89925.25
90520.915
90814.178
91302.092
91727.23
92192.085
92662.917
93145.172
93634.936
94129.733
94626.389
95121.525
95611.503
96092.533
96560.786
97012.526
97444.251
97852.834
98235.637
98590.601
98916.296
99211.93
99477.325
99712.868
99919.432
100098.29
100251.04
100379.48
100485.56
100571.33
100638.8
100689.98
100726.79
100751.05
100764.48
100768.64
100764.98
100754.79
100739.26
100719.44
100696.24
100670.48
100642.89
100614.06
100584.55
100554.81
100525.21
100496.1
100467.72
100440.3
100414.02
100389.01
100365.38
100343.19
100322.49
100303.32
100285.66
100269.51
100254.84
100241.61
100229.75
100219.22
100209.92
100201.77
100194.68
100188.61
100183.46
100178.89
100174.55
100171.04
100169.65
100168.22
100159.06
100145.39
100160.65
100208.17
88837.559
89639.451
89626.223
90420.312
90573.205
91236.432
91609.105
92156.903
92658.98
93191.421
93730.517
94277.505
94827.889
95377.795
95922.742
96458.042
96978.89
97480.568
97958.649
98409.189
98828.898
99215.254
99566.565
99881.976
100161.43
100405.57
100615.66
100793.44
100941
101060.68
101154.95
101226.35
101277.39
101310.47
101327.92
101331.88
101324.36
101307.18
101281.99
101250.26
101213.32
101172.32
101128.31
101082.15
101034.64
100986.43
100938.08
100890.09
100842.85
100796.7
100751.9
100708.69
100667.24
100627.67
100590.08
100554.54
100521.08
100489.72
100460.46
100433.27
100408.11
100384.93
100363.67
100344.25
100326.6
100310.63
100296.23
100283.3
100271.74
100261.52
100252.45
100244.15
100236.42
100230.17
100226.38
100221.49
100208.05
100194.2
100214.02
100257.99
89320.552
90261.326
90266.173
91175.027
91396.012
92137.312
92607.191
93226.55
93815.661
94425.735
95039.82
95655.54
96266.874
96868.027
97452.838
98015.251
98549.572
99050.761
99514.669
99938.193
100319.35
100657.26
100952.1
101204.94
101417.59
101592.43
101732.26
101840.11
101919.15
101972.54
102003.36
102014.54
102008.85
101988.83
101956.81
101914.87
101864.9
101808.55
101747.29
101682.41
101615.01
101546.04
101476.35
101406.62
101337.45
101269.33
101202.67
101137.81
101075.02
101014.52
100956.46
100900.96
100848.12
100797.98
100750.57
100705.88
100663.9
100624.58
100587.88
100553.73
100522.06
100492.77
100465.79
100441
100418.31
100397.61
100378.78
100361.69
100346.28
100332.46
100319.98
100308.45
100297.92
100289.48
100283.51
100275.35
100258.53
100245.47
100269.68
100309.68
89934.111
91051.727
91086.358
92128.875
92437.404
93265.651
93852.153
94557.092
95243.09
95939.246
96631.388
97313.412
97976.984
98614.232
99217.684
99780.802
100298.29
100766.31
101182.55
101546.24
101857.91
102119.31
102333.05
102502.44
102631.23
102723.38
102782.92
102813.83
102819.89
102804.67
102771.44
102723.2
102662.62
102592.1
102513.74
102429.4
102340.68
102248.96
102155.44
102061.13
101966.88
101873.43
101781.37
101691.21
101603.34
101518.09
101435.72
101356.43
101280.35
101207.61
101138.24
101072.3
101009.78
100950.65
100894.89
100842.42
100793.19
100747.11
100704.08
100664.01
100626.79
100592.31
100560.44
100531.09
100504.11
100479.39
100456.79
100436.2
100417.53
100400.67
100385.3
100371.1
100358.37
100348.2
100340.24
100329.16
100310.22
100298.87
100326.73
100362.79
90712.225
92042.613
92121.816
93318.853
93748.18
94675.637
95400.555
96207.343
96996.903
97780.04
98541.9
99272.788
99962.538
100602.54
101185.93
101707.93
102165.94
102559.38
102889.5
103159
103371.74
103532.31
103645.74
103717.25
103752.02
103754.99
103730.86
103683.9
103618.01
103536.67
103442.95
103339.56
103228.84
103112.81
102993.2
102871.5
102748.95
102626.6
102505.33
102385.87
102268.8
102154.62
102043.71
101936.36
101832.82
101733.24
101637.75
101546.42
101459.29
101376.35
101297.58
101222.94
101152.36
101085.76
101023.04
100964.1
100908.82
100857.1
100808.79
100763.78
100721.94
100683.12
100647.19
100614.02
100583.47
100555.41
100529.69
100506.2
100484.86
100465.49
100447.76
100431.46
100417.11
100405.63
100395.84
100382.31
100362.58
100353.99
100384.54
100415.85
91686.619
93282.636
93442.903
94811.538
95407.295
96449.405
97329.093
98246.591
99131.822
99982.246
100781.62
101518.8
102184.69
102773.31
103281.75
103709.97
104060.33
104337.08
104545.84
104693.05
104785.54
104830.16
104833.55
104801.95
104741.07
104656.09
104551.58
104431.55
104299.52
104158.47
104010.98
103859.22
103705.05
103549.98
103395.32
103242.11
103091.23
102943.37
102799.11
102658.89
102523.06
102391.89
102265.55
102144.18
102027.86
101916.61
101810.44
101709.32
101613.18
101521.95
101435.52
101353.8
101276.65
101203.95
101135.55
101071.32
101011.1
100954.76
100902.14
100853.09
100807.45
100765.08
100725.82
100689.54
100656.08
100625.3
100597.06
100571.25
100547.77
100526.38
100506.8
100488.96
100473.5
100461.03
100449.64
100434.27
100414.89
100409.87
100441.7
100466.88
92939.186
94870.459
95156.397
96717.336
97526.421
98689.754
99716.851
100726.82
101667.69
102530.62
103302.05
103974.62
104545.22
105014.78
105387.51
105670.08
105870.73
105998.51
106062.75
106072.5
106036.31
105961.98
105856.52
105726.08
105576.02
105410.93
105234.71
105050.68
104861.58
104669.72
104477
104284.98
104094.94
103907.9
103724.7
103545.99
103372.27
103203.94
103041.28
102884.5
102733.72
102589.02
102450.42
102317.91
102191.44
102070.92
101956.27
101847.36
101744.05
101646.21
101553.68
101466.29
101383.89
101306.3
101233.35
101164.87
101100.68
101040.62
100984.52
100932.21
100883.52
100838.3
100796.37
100757.59
100721.81
100688.86
100658.63
100631.01
100605.84
100582.9
100561.93
100543.05
100526.9
100513.66
100500.95
100484.51
100466.46
100464.79
100495.91
100514.52
94599.35
96944.375
97410.368
99160.552
100216.35
101482.45
102600.79
103633.75
104543.84
105325.33
105974.67
106494.72
106892.69
107178.99
107365.81
107466.06
107492.51
107457.2
107371.14
107244.1
107084.6
106899.94
106696.29
106478.83
106251.86
106018.92
105782.92
105546.2
105310.67
105077.87
104849.01
104625.04
104406.71
104194.58
103989.07
103790.49
103599.03
103414.81
103237.9
103068.29
102905.95
102750.79
102602.7
102461.56
102327.21
102199.5
102078.24
101963.26
101854.36
101751.34
101654.02
101562.19
101475.64
101394.19
101317.64
101245.79
101178.46
101115.45
101056.58
101001.68
100950.57
100903.08
100859.04
100818.29
100780.67
100746.04
100714.28
100685.26
100658.81
100634.7
100612.77
100593.25
100576.68
100562.81
100549.09
100532.33
100516.25
100517.18
100545.85
100559.22
96852.398
99661.234
100367.49
102253.31
103514.82
104820.76
105911.46
106839.28
107592.02
108176.25
108603.77
108890.95
109056.08
109117.79
109093.8
109000.23
108851.29
108659.18
108434.21
108184.93
107918.35
107640.19
107355.07
107066.69
106777.98
106491.28
106208.4
105930.77
105659.47
105395.33
105138.94
104890.75
104651.05
104420
104197.72
103984.21
103779.43
103583.29
103395.68
103216.43
103045.38
102882.34
102727.08
102579.41
102439.08
102305.89
102179.59
102059.95
101946.75
101839.74
101738.71
101643.41
101553.65
101469.18
101389.81
101315.31
101245.5
101180.16
101119.12
101062.17
101009.15
100959.87
100914.17
100871.87
100832.84
100796.92
100763.99
100733.91
100706.51
100681.57
100659.02
100639.14
100622.31
100607.91
100593.47
100576.98
100563.23
100566.29
100591.74
100599.39
99942.754
103128.23
104134.23
106078.56
107372.93
108524.14
109423.28
110095.88
110560.67
110844.97
110977.1
110984.69
110892.81
110723.28
110494.5
110221.67
109917.1
109590.64
109250.1
108901.61
108549.95
108198.8
107851.02
107508.75
107173.63
106846.86
106529.31
106221.58
105924.09
105637.09
105360.69
105094.91
104839.7
104594.96
104360.51
104136.17
103921.71
103716.9
103521.48
103335.18
103157.74
102988.88
102828.32
102675.79
102531
102393.69
102263.58
102140.42
102023.93
101913.87
101809.97
101712.01
101619.73
101532.91
101451.32
101374.75
101302.98
101235.8
101173.03
101114.47
101059.93
101009.24
100962.22
100918.72
100878.58
100841.66
100807.84
100776.97
100748.86
100723.35
100700.43
100680.38
100663.36
100648.52
100633.76
100618.11
100606.69
100610.86
100632.24
100635.69
104124.31
107517.53
108718.27
110390.95
111497.91
112309.26
112825.62
113102.37
113184.47
113115.03
112930.34
112660.36
112329.02
111955.07
111553.01
111133.87
110706.04
110275.78
109847.77
109425.46
109011.35
108607.26
108214.43
107833.73
107465.7
107110.64
106768.69
106439.84
106123.99
105820.96
105530.52
105252.39
104986.28
104731.86
104488.8
104256.75
104035.37
103824.32
103623.25
103431.82
103249.68
103076.52
102912.01
102755.82
102607.65
102467.2
102334.16
102208.25
102089.2
101976.72
101870.56
101770.45
101676.15
101587.43
101504.03
101425.76
101352.37
101283.69
101219.49
101159.58
101103.78
101051.92
101003.82
100959.32
100918.27
100880.53
100845.99
100814.47
100785.82
100759.91
100736.77
100716.61
100699.39
100684.23
100669.55
100655.2
100645.85
100649.79
100666.26
100667.15
109321.62
112663.98
113766.68
114874.17
115468.42
115737.42
115746
115567.5
115255.63
114852.43
114389.01
113888.26
113366.75
112836.39
112305.63
111780.44
111264.96
110762.02
110273.5
109800.6
109344
108904.06
108480.84
108074.24
107684.04
107309.91
106951.46
106608.28
106279.92
105965.9
105665.76
105379.03
105105.25
104843.96
104594.71
104357.07
104130.6
103914.9
103709.56
103514.19
103328.42
103151.87
102984.2
102825.06
102674.12
102531.06
102395.56
102267.33
102146.07
102031.5
101923.35
101821.36
101725.27
101634.84
101549.83
101470.01
101395.17
101325.1
101259.6
101198.47
101141.52
101088.59
101039.49
100994.08
100952.2
100913.73
100878.51
100846.42
100817.3
100791.05
100767.73
100747.41
100729.94
100714.6
100700.36
100687.56
100679.79
100682.21
100692.9
100692.61
115479.67
117970.87
118568.79
118837.55
118733.4
118397.25
117908.04
117326
116691.27
116031.05
115363.33
114699.93
114048.49
113413.85
112798.96
112205.48
111634.24
111085.49
110559.1
110054.69
109571.71
109109.54
108667.49
108244.82
107840.83
107454.78
107085.98
106733.73
106397.38
106076.29
105769.84
105477.46
105198.57
104932.63
104679.15
104437.61
104207.54
103988.51
103780.06
103581.78
103393.27
103214.15
103044.04
102882.59
102729.45
102584.29
102446.8
102316.66
102193.57
102077.26
101967.44
101863.85
101766.23
101674.34
101587.93
101506.78
101430.68
101359.41
101292.77
101230.56
101172.61
101118.73
101068.76
101022.54
100979.93
100940.79
100904.99
100872.38
100842.84
100816.31
100792.78
100772.25
100754.52
100739.1
100725.46
100714.05
100707.11
100707.37
100713.14
100712.97
122052.84
122486.62
122263.08
121709.69
120974.89
120149.25
119288.34
118423.71
117573.66
116748.27
115952.86
115189.89
114460.13
113763.34
113098.72
112465.13
111861.29
111285.84
110737.42
110214.71
109716.44
109241.38
108788.4
108356.41
107944.4
107551.41
107176.56
106819.01
106477.97
106152.7
105842.51
105546.74
105264.78
104996.04
104739.96
104496.02
104263.72
104042.58
103832.16
103632.02
103441.73
103260.92
103089.2
102926.2
102771.57
102624.98
102486.1
102354.62
102230.25
102112.69
102001.67
101896.91
101798.16
101705.18
101617.72
101535.56
101458.48
101386.27
101318.74
101255.67
101196.9
101142.24
101091.54
101044.64
101001.39
100961.65
100925.3
100892.2
100862.25
100835.38
100811.56
100790.71
100772.67
100757.14
100743.94
100733.43
100726.75
100725.02
100727.06
100727.45
125911.21
125283.8
124364.77
123310.71
122225.04
121151.78
120113.49
119119.38
118172.85
117274.08
116421.73
115613.71
114847.64
114121.05
113431.53
112776.8
112154.72
111563.29
111000.68
110465.19
109955.28
109469.52
109006.6
108565.3
108144.51
107743.2
107360.42
106995.27
106646.93
106314.64
105997.66
105695.33
105407.01
105132.11
104870.05
104620.31
104382.39
104155.79
103940.06
103734.77
103539.5
103353.85
103177.43
103009.89
102850.87
102700.04
102557.06
102421.63
102293.44
102172.21
102057.66
101949.51
101847.51
101751.41
101660.97
101575.96
101496.16
101421.37
101351.38
101285.99
101225.03
101168.3
101115.66
101066.94
101022
100980.7
100942.9
100908.49
100877.37
100849.46
100824.71
100803.02
100784.24
100768.2
100754.86
100744.49
100737.63
100734.61
100734.57
100735.37
104024.64
103988.67
104015.02
104041.79
104056.95
104048.57
104016.12
103974.39
103926.69
103868.13
103796.63
103715.01
103626.56
103535.39
103441.84
103345.91
103247.83
103147.94
103046.51
102943.78
102840.01
102735.42
102630.21
102524.6
102418.78
102312.92
102207.21
102101.83
101996.93
101892.69
101789.27
101686.81
101585.48
101485.42
101386.79
101289.73
101194.38
101100.9
101009.42
100920.09
100833.05
100748.45
100666.43
100587.12
100510.67
100437.21
100366.87
100299.78
100236.07
100175.86
100119.24
100066.3
100017.14
99971.806
99930.358
99892.827
99859.226
99829.542
99803.74
99781.755
99763.494
99748.841
99737.663
99729.792
99725.081
99723.245
99724.281
99727.409
99733.683
99739.979
99752.182
99757.609
99779.899
99775.864
99819.231
99787.45
99869.535
99793.769
99923.887
99802.379
103039.85
103033.62
103056.6
103077.36
103080.1
103078.98
103071.79
103058.13
103034.95
103006.2
102970.96
102930.74
102884.96
102834.51
102779.42
102720.2
102657.04
102590.22
102520.02
102446.72
102370.6
102291.95
102211.03
102128.14
102043.56
101957.54
101870.37
101782.3
101693.58
101604.47
101515.2
101426
101337.1
101248.71
101161.06
101074.34
100988.76
100904.52
100821.82
100740.84
100661.77
100584.79
100510.09
100437.82
100368.17
100301.29
100237.34
100176.47
100118.82
100064.51
100013.67
99966.396
99922.769
99882.859
99846.72
99814.384
99785.857
99761.124
99740.138
99722.828
99709.092
99698.803
99691.818
99687.967
99687.083
99688.891
99693.343
99699.746
99708.961
99718.247
99732.75
99741.168
99764.78
99763.893
99807.377
99779.578
99861.374
99787.287
99921.962
99793.645
102402.61
102397.39
102396.86
102398.91
102394.32
102389.33
102379.82
102370.09
102355.41
102338.34
102316.13
102291.02
102261.23
102228.03
102190.74
102149.89
102105.42
102057.54
102006.39
101952.15
101895
101835.14
101772.77
101708.1
101641.33
101572.68
101502.38
101430.65
101357.71
101283.79
101209.12
101133.92
101058.44
100982.89
100907.51
100832.52
100758.16
100684.64
100612.18
100541.01
100471.34
100403.39
100337.34
100273.42
100211.8
100152.67
100096.23
100042.62
99992.014
99944.554
99900.364
99859.556
99822.222
99788.437
99758.256
99731.713
99708.811
99689.53
99673.818
99661.596
99652.755
99647.162
99644.667
99645.092
99648.262
99653.908
99661.946
99671.752
99684.047
99696.372
99713.341
99724.671
99749.868
99751.831
99795.875
99771.476
99853.436
99780.909
99919.584
99785.764
101950.77
101938.52
101922.89
101907.25
101892.34
101879.29
101859.43
101841.29
101819.17
101797.83
101772.76
101747.54
101719.27
101689.91
101658.08
101624.46
101588.66
101550.8
101510.8
101468.69
101424.48
101378.21
101329.92
101279.67
101227.57
101173.7
101118.19
101061.18
101002.81
100943.25
100882.67
100821.26
100759.22
100696.74
100634.05
100571.35
100508.87
100446.83
100385.47
100324.99
100265.64
100207.63
100151.19
100096.53
100043.87
99993.396
99945.319
99899.818
99857.067
99817.217
99780.408
99746.757
99716.364
99689.31
99665.653
99645.425
99628.632
99615.245
99605.209
99598.438
99594.818
99594.211
99596.462
99601.389
99608.806
99618.452
99630.22
99643.538
99659.017
99674.431
99693.979
99708.17
99735.134
99739.752
99784.67
99763.216
99845.735
99774.673
99916.955
99778.385
101410.34
101393.99
101375.63
101356.34
101336.27
101320.1
101299.37
101282.44
101261.1
101242.69
101220.62
101200.21
101177.08
101154.24
101129.53
101104.02
101077.04
101048.77
101019.03
100987.78
100954.98
100920.59
100884.6
100847.01
100807.84
100767.13
100724.93
100681.33
100636.4
100590.26
100543.02
100494.84
100445.85
100396.23
100346.15
100295.82
100245.42
100195.17
100145.29
100095.99
100047.49
100000.02
99953.811
99909.075
99866.034
99824.9
99785.878
99749.16
99714.925
99683.333
99654.527
99628.632
99605.752
99585.97
99569.345
99555.91
99545.665
99538.579
99534.59
99533.606
99535.51
99540.158
99547.392
99557.026
99568.869
99582.665
99598.287
99615.217
99633.968
99652.523
99674.723
99691.745
99720.599
99727.8
99773.732
99754.992
99838.225
99768.618
99914.058
99771.526
100776.07
100766.12
100756.58
100746.72
100734.01
100726.48
100712.64
100704.11
100689.73
100679.5
100664.55
100652.35
100636.99
100622.72
100606.52
100589.94
100572.1
100553.33
100533.39
100512.26
100489.91
100466.29
100441.38
100415.17
100387.64
100358.8
100328.67
100297.29
100264.71
100230.99
100196.21
100160.48
100123.9
100086.62
100048.78
100010.54
99972.077
99933.575
99895.23
99857.246
99819.832
99783.203
99747.577
99713.172
99680.203
99648.882
99619.413
99591.989
99566.786
99543.965
99523.671
99506.028
99491.141
99479.092
99469.94
99463.71
99460.399
99459.969
99462.352
99467.451
99475.142
99485.281
99497.703
99512.223
99528.643
99546.714
99566.297
99586.919
99609.007
99630.746
99655.638
99675.461
99706.299
99716.072
99763.058
99746.933
99830.907
99762.78
99910.903
99765.283
100151.65
100149.55
100147.57
100147.22
100141.71
100142.84
100136.05
100136.11
100129.06
100127.74
100120.45
100116.92
100109.58
100103.89
100095.95
100087.89
100078.57
100068.57
100057.63
100045.75
100032.91
100019.06
100004.17
99988.224
99971.198
99953.081
99933.878
99913.6
99892.276
99869.948
99846.673
99822.523
99797.585
99771.965
99745.779
99719.163
99692.262
99665.236
99638.259
99611.511
99585.184
99559.475
99534.587
99510.725
99488.094
99466.896
99447.323
99429.56
99413.775
99400.125
99388.745
99379.758
99373.263
99369.336
99368.027
99369.356
99373.311
99379.844
99388.881
99400.317
99414.025