/*--------------------------------*- C++ -*----------------------------------*\
| =========                 |                                                 |
| \\      /  F ield         | OpenFOAM: The Open Source CFD Toolbox           |
|  \\    /   O peration     | Version:  2512                                  |
|   \\  /    A nd           | Website:  www.openfoam.com                      |
|    \\/     M anipulation  |                                                 |
\*---------------------------------------------------------------------------*/
FoamFile
{
    version     2.0;
    format      ascii;
    arch        "LSB;label=32;scalar=64";
    class       surfaceScalarField;
    location    "0.148";
    object      phi;
}
// * * * * * * * * * * * * * * * * * * * * * * * * * * * * * * * * * * * * * //

dimensions      [1 0 -1 0 0 0 0];

oriented        oriented;

internalField   nonuniform List<scalar> 
31760
(
-0.00063919656
-0.05101249
0.051651859
-0.0016039437
-0.064428562
0.065393534
-0.002596928
-0.062886754
0.06387963
-0.0036145084
-0.068686846
0.069704583
-0.0046863375
-0.070249345
0.071321296
-0.0057872797
-0.074593568
0.075694704
-0.0069581595
-0.077468721
0.078639766
-0.0081683316
-0.081512486
0.082722881
-0.0094388285
-0.085115413
0.08638614
-0.01076836
-0.089249372
0.090579169
-0.012153349
-0.093378434
0.094763712
-0.01360599
-0.097797506
0.099250467
-0.015120461
-0.10237493
0.10388975
-0.016705344
-0.10718207
0.10876733
-0.018359983
-0.11220349
0.11385854
-0.020089228
-0.1174576
0.11918728
-0.02189567
-0.12295182
0.12475874
-0.023782518
-0.12869783
0.13058518
-0.025752992
-0.13470656
0.13667759
-0.027810482
-0.14098934
0.14304741
-0.029958415
-0.14755854
0.1497071
-0.03220055
-0.15442616
0.15666896
-0.034540482
-0.16160579
0.16394643
-0.036982119
-0.16911113
0.17155353
-0.039528439
-0.17695672
0.17950385
-0.042184031
-0.18515666
0.18781312
-0.044952796
-0.1937272
0.19649689
-0.047838173
-0.20268493
0.20557129
-0.050843668
-0.21204676
0.21505331
-0.053973344
-0.22183076
0.22496156
-0.057230526
-0.23205584
0.23531423
-0.060618567
-0.2427418
0.24613113
-0.064140308
-0.25391011
0.25743324
-0.067798825
-0.26558188
0.26924188
-0.071596142
-0.27778117
0.28158008
-0.075533957
-0.29053225
0.29447177
-0.079613636
-0.30386081
0.30794232
-0.083835689
-0.31779457
0.32201859
-0.088199963
-0.33236152
0.3367279
-0.092705169
-0.34759311
0.35210058
-0.097349325
-0.36352115
0.36816773
-0.10212902
-0.38017942
0.38496172
-0.10703964
-0.39760404
0.40251745
-0.11207537
-0.41583292
0.42087165
-0.11722845
-0.4349065
0.44006282
-0.12248971
-0.4548665
0.46013124
-0.12784755
-0.47575794
0.48111951
-0.133289
-0.49762727
0.50307273
-0.13879849
-0.52052468
0.5260385
-0.14435767
-0.54450206
0.5500659
-0.14994544
-0.56961391
0.57520668
-0.15553824
-0.59591833
0.60151651
-0.16110862
-0.6234757
0.62905189
-0.16662558
-0.65234966
0.65787286
-0.17205458
-0.6826067
0.68804241
-0.17735562
-0.71431736
0.71962565
-0.18248459
-0.74755464
0.7526914
-0.18739198
-0.7823951
0.78731089
-0.19202135
-0.81891924
0.82355767
-0.19631046
-0.85721075
0.86150964
-0.20018917
-0.89735696
0.90124622
-0.20357958
-0.9394489
0.94285069
-0.20639432
-0.98358212
0.98640914
-0.20853603
-1.0298561
1.032011
-0.20989586
-1.0783726
1.0797466
-0.21035287
-1.1292376
1.1297099
-0.20977078
-1.1825589
1.1819931
-0.20800406
-1.2384456
1.2366963
-0.20488578
-1.2970157
1.293916
-0.20022879
-1.3583885
1.3537514
-0.19383053
-1.4226859
1.4163087
-0.18547105
-1.4900296
1.4816924
-0.1748974
-1.5605496
1.5499992
-0.1618431
-1.6343796
1.6213492
-0.14598765
-1.7116821
1.6958511
-0.12711325
-1.7925955
1.7737452
-0.10441178
-1.8772572
1.8545784
-0.078673565
-1.9663413
1.9406279
-0.047260832
-2.0579383
2.0265396
-2.1571541
2.1223571
-0.00063485584
-0.050377688
-0.0015049558
-0.06355841
-0.0023972905
-0.061993499
-0.0033571153
-0.067727014
-0.0043270862
-0.069279286
-0.0053736813
-0.073546878
-0.0064360901
-0.076406173
-0.0075782183
-0.080370188
-0.0087461399
-0.083947286
-0.0099887363
-0.08800654
-0.011273832
-0.092093069
-0.012626808
-0.096444233
-0.014036866
-0.10096454
-0.015513635
-0.10570494
-0.017056974
-0.11065976
-0.0186712
-0.11584295
-0.020358435
-0.12126413
-0.022122487
-0.12693329
-0.023966577
-0.13286195
-0.025894305
-0.13906105
-0.027909344
-0.1455429
-0.030014964
-0.1523199
-0.032215285
-0.15940478
-0.034514015
-0.16681167
-0.036915968
-0.17455398
-0.039423975
-0.18264782
-0.042042753
-0.19110753
-0.044776066
-0.19995066
-0.04762823
-0.20919358
-0.050602856
-0.21885504
-0.053704072
-0.22895345
-0.056935265
-0.23950935
-0.0602998
-0.25054423
-0.063800733
-0.2620795
-0.06744056
-0.27413979
-0.071221685
-0.28674945
-0.075145354
-0.29993534
-0.079213151
-0.31372484
-0.083424498
-0.32814809
-0.087779058
-0.34323632
-0.092275293
-0.35902251
-0.096910154
-0.37554197
-0.10167932
-0.39283209
-0.10657773
-0.41093151
-0.11159834
-0.42988267
-0.11673256
-0.44972881
-0.12197016
-0.4705166
-0.12729846
-0.49229493
-0.13270315
-0.51511565
-0.1381676
-0.53903293
-0.14367239
-0.56410409
-0.14919539
-0.5903899
-0.15471133
-0.61795392
-0.16019183
-0.64686286
-0.16560472
-0.67718701
-0.17091365
-0.7090011
-0.17607808
-0.74238231
-0.18105237
-0.77741227
-0.18578514
-0.81417726
-0.19021947
-0.85276647
-0.19429127
-0.89327441
-0.19792916
-0.9357994
-0.20105302
-0.98044573
-0.20357468
-1.0273209
-0.2053945
-1.0765382
-0.20640306
-1.1282134
-0.20647458
-1.1824705
-0.20547367
-1.2394285
-0.20324942
-1.2992206
-0.19963298
-1.3619844
-0.19443996
-1.427857
-0.18746357
-1.496983
-0.17847769
-1.5695114
-0.1672293
-1.6456029
-0.15345252
-1.7254332
-0.13684571
-1.809177
-0.11698588
-1.8970925
-0.093909013
-1.9893941
-0.066186
-2.0856476
-2.1883143
-0.00057193428
-0.049805584
-0.0013841617
-0.062745965
-0.0021882712
-0.06118952
-0.0030954319
-0.066819566
-0.003986307
-0.068388124
-0.0049651005
-0.072567801
-0.0059430869
-0.075427903
-0.0070063689
-0.079306614
-0.0080873373
-0.082866017
-0.0092421046
-0.086851462
-0.010435762
-0.090899087
-0.011693797
-0.09518586
-0.013006312
-0.099651671
-0.014382083
-0.1043288
-0.015821543
-0.1092199
-0.017328395
-0.11433568
-0.018905958
-0.11968612
-0.020557202
-0.12528157
-0.022286396
-0.13113225
-0.024096367
-0.13725054
-0.0259916
-0.1436471
-0.027975616
-0.15033527
-0.030052295
-0.15732745
-0.032226426
-0.16463684
-0.034501285
-0.17227837
-0.036882101
-0.1802662
-0.039372345
-0.18861642
-0.04197712
-0.19734496
-0.04470002
-0.20646968
-0.047546248
-0.21600774
-0.050518973
-0.22597958
-0.053622591
-0.2364045
-0.056860985
-0.24730451
-0.06023692
-0.25870214
-0.063754073
-0.2706211
-0.067414698
-0.28308717
-0.071221119
-0.29612714
-0.075173937
-0.30977011
-0.079274243
-0.32404572
-0.083521593
-0.33898675
-0.08791426
-0.35462745
-0.092450177
-0.37100348
-0.097126003
-0.38815349
-0.1019363
-0.40611822
-0.10687509
-0.42494066
-0.11193439
-0.44466603
-0.11710498
-0.46534226
-0.12237492
-0.48702094
-0.12773166
-0.50975454
-0.13315953
-0.53360035
-0.13864034
-0.55861818
-0.14415469
-0.58487006
-0.14967927
-0.61242343
-0.15518817
-0.64134757
-0.16065222
-0.67171606
-0.16603851
-0.70360737
-0.17131048
-0.73710231
-0.17642597
-0.7722881
-0.1813395
-0.80925434
-0.18599861
-0.84809721
-0.19034586
-0.88891618
-0.19431621
-0.93181717
-0.19783808
-0.97691102
-0.20083063
-1.0243145
-0.20320393
-1.0741499
-0.20485679
-1.1265444
-0.20568093
-1.181629
-0.20555015
-1.2395406
-0.20432478
-1.300426
-0.20185662
-1.3644312
-0.19797226
-1.4317187
-0.19248984
-1.5024414
-0.18519812
-1.576778
-0.17587251
-1.6549025
-0.16426446
-1.7370146
-0.15008607
-1.8233288
-0.13304351
-1.9141089
-0.112902
-2.0095111
-0.088859097
-2.1096744
-2.2157344
-0.00051680114
-0.049288661
-0.0012682227
-0.061994365
-0.0020007247
-0.060456851
-0.0028498702
-0.065970235
-0.0036755508
-0.067562285
-0.0045870736
-0.071656074
-0.005488516
-0.07452625
-0.0064780773
-0.078316824
-0.0074792441
-0.081864607
-0.0085531204
-0.085777326
-0.0096627693
-0.089789159
-0.010833867
-0.094014465
-0.0120576
-0.098427618
-0.013341736
-0.10304432
-0.014687734
-0.10787354
-0.016099448
-0.11292357
-0.017580135
-0.11820502
-0.019133169
-0.12372809
-0.020762002
-0.12950294
-0.022470972
-0.13554106
-0.024263238
-0.14185428
-0.026143865
-0.14845406
-0.028116766
-0.15535391
-0.03018595
-0.16256698
-0.032356601
-0.170107
-0.034632711
-0.17798931
-0.037019371
-0.18622892
-0.039520982
-0.19484245
-0.042143069
-0.20384663
-0.044889068
-0.2132607
-0.047764197
-0.22310333
-0.050772912
-0.23339457
-0.053919001
-0.24415712
-0.057206443
-0.25541329
-0.060638743
-0.26718729
-0.064218447
-0.27950583
-0.067947854
-0.29239597
-0.071828956
-0.30588711
-0.075862167
-0.32001046
-0.080047584
-0.33479912
-0.084384644
-0.350288
-0.088870697
-0.36651484
-0.093502951
-0.38351845
-0.098277042
-0.40134112
-0.10318703
-0.42002742
-0.10822641
-0.43962314
-0.11338546
-0.46017942
-0.11865524
-0.48174708
-0.12402292
-0.50438245
-0.12947485
-0.52814365
-0.13499538
-0.55309251
-0.14056585
-0.57929402
-0.14616604
-0.60681723
-0.15177309
-0.63573404
-0.15735991
-0.66612222
-0.16289817
-0.69806153
-0.1683544
-0.73163789
-0.17369174
-0.7669419
-0.17886901
-0.80406747
-0.18383979
-0.84311605
-0.18855237
-0.88419236
-0.1929489
-0.92740847
-0.1969652
-0.97288155
-0.20052898
-1.0207365
-0.20355985
-1.0711037
-0.20596992
-1.1241177
-0.20765379
-1.1799273
-0.2085055
-1.2386696
-0.20839659
-1.3005143
-0.20719465
-1.365611
-0.20474669
-1.434143
-0.20087663
-1.5062864
-0.19540739
-1.582221
-0.18812723
-1.6621555
-0.17881509
-1.7462989
-0.16721458
-1.8349014
-0.15306456
-1.9282311
-0.13608228
-2.0264681
-0.11574107
-2.1299971
-2.2392638
-0.00046298069
-0.048825577
-0.0011678425
-0.061289344
-0.0018233316
-0.059801176
-0.0026125761
-0.065180822
-0.003361969
-0.066812729
-0.0042164563
-0.070801395
-0.0050511917
-0.07369131
-0.0059749875
-0.077392808
-0.0069052274
-0.080934132
-0.0079060957
-0.084776207
-0.0089415052
-0.08875348
-0.010035986
-0.092919697
-0.011182819
-0.097280477
-0.012388552
-0.10183826
-0.01365535
-0.10660639
-0.014986333
-0.11159222
-0.016385206
-0.11680574
-0.017855727
-0.12225714
-0.019401576
-0.12795663
-0.021026786
-0.13391535
-0.02273608
-0.14014445
-0.024532832
-0.14665673
-0.026422589
-0.15346354
-0.028409987
-0.16057892
-0.030499604
-0.16801667
-0.032696789
-0.17579136
-0.035006832
-0.18391806
-0.037434766
-0.19241363
-0.03998562
-0.20129482
-0.042664714
-0.21058058
-0.045477046
-0.22028988
-0.048427221
-0.2304432
-0.051519729
-0.24106332
-0.054759059
-0.25217257
-0.058148503
-0.26379634
-0.061691269
-0.27596144
-0.065389973
-0.28869551
-0.069246618
-0.30202856
-0.073262037
-0.31599299
-0.077436687
-0.33062224
-0.081769564
-0.34595272
-0.086259518
-0.3620223
-0.090903265
-0.37887189
-0.095697104
-0.39654425
-0.10063654
-0.41508471
-0.10571453
-0.4345416
-0.11092382
-0.45496631
-0.11625518
-0.47641157
-0.12169784
-0.49893531
-0.12724017
-0.52259648
-0.1328676
-0.54745984
-0.13856464
-0.57359133
-0.14431315
-0.6010626
-0.15009275
-0.62994783
-0.155881
-0.66032682
-0.16165205
-0.69228274
-0.16737661
-0.72590495
-0.17302325
-0.76128619
-0.17855524
-0.79852567
-0.18393249
-0.83772816
-0.18910915
-0.87900417
-0.19403464
-0.92247048
-0.19865199
-0.96825065
-0.20289805
-1.0164757
-0.20670198
-1.0672839
-0.20998324
-1.1208193
-0.2126566
-1.1772354
-0.21461625
-1.23669
-0.21576162
-1.2993474
-0.21595944
-1.3653901
-0.2150818
-1.4349961
-0.21297504
-1.5083671
-0.20947239
-1.5856963
-0.20439067
-1.6672088
-0.19752636
-1.7531342
-0.18865185
-1.8437467
-0.17753948
-1.9393143
-0.16390435
-2.040077
-0.14736863
-2.1465122
-2.2587072
-0.00041325511
-0.048412218
-0.0010770233
-0.060625423
-0.0016704058
-0.059207666
-0.0024043112
-0.064446749
-0.0030766377
-0.066140213
-0.0038799906
-0.069997854
-0.0046471609
-0.072923942
-0.0055107514
-0.076529006
-0.0063768687
-0.080067789
-0.0073165695
-0.083836266
-0.0082921647
-0.087777628
-0.0093244868
-0.091887101
-0.010409152
-0.096195518
-0.011551134
-0.10069597
-0.012753114
-0.10540407
-0.014018985
-0.11032599
-0.015352238
-0.1154721
-0.016756764
-0.1208522
-0.018237074
-0.12647587
-0.019797187
-0.13235476
-0.021442227
-0.1384989
-0.023177049
-0.14492136
-0.025006842
-0.15163315
-0.026936769
-0.15864835
-0.028972515
-0.16598023
-0.031119971
-0.17364316
-0.033383965
-0.18165326
-0.035770906
-0.19002582
-0.038286207
-0.19877857
-0.04093537
-0.2079304
-0.04372411
-0.21750004
-0.046657134
-0.22750899
-0.049739963
-0.2379792
-0.052976017
-0.24893512
-0.056369917
-0.26040093
-0.059925101
-0.27240462
-0.063643857
-0.28497499
-0.067528246
-0.29814226
-0.071579872
-0.31193929
-0.075798842
-0.32640104
-0.080185069
-0.34156407
-0.084736553
-0.35746819
-0.08945155
-0.37415406
-0.094326783
-0.39166594
-0.099357144
-0.41005102
-0.1045375
-0.42935765
-0.10986204
-0.44963788
-0.11532185
-0.47094755
-0.12090893
-0.49334368
-0.12661182
-0.51688867
-0.13241984
-0.54164649
-0.13831898
-0.56768643
-0.14429415
-0.59508118
-0.15032823
-0.62390699
-0.15640187
-0.65424587
-0.16249328
-0.68618341
-0.16857872
-0.71981093
-0.1746301
-0.75522551
-0.18061691
-0.79252878
-0.18650409
-0.83183005
-0.19225342
-0.87324299
-0.19782095
-0.9168901
-0.20315794
-0.9628997
-0.20820949
-1.0114091
-0.21291409
-1.0625629
-0.21720268
-1.1165129
-0.22099802
-1.1734208
-0.22421597
-1.2334514
-0.22675454
-1.2967866
-0.22851287
-1.3636079
-0.22936668
-1.4341167
-0.22918472
-1.5085219
-0.22781986
-1.5870326
-0.22510768
-1.6698913
-0.22086818
-1.7573434
-0.21490496
-1.8496792
-0.20700239
-1.9471861
-0.19690906
-2.0501431
-0.18433499
-2.1590636
-2.2738358
-0.00037066095
-0.048041459
-0.001003607
-0.059992333
-0.0015423666
-0.058668769
-0.0022303357
-0.063758624
-0.0028455027
-0.065524893
-0.0035979945
-0.069245186
-0.0043122316
-0.072209519
-0.005114754
-0.075726283
-0.0059407118
-0.079241617
-0.0068335451
-0.082943204
-0.0077621435
-0.086848783
-0.0087436752
-0.090905308
-0.0097771566
-0.095161753
-0.010866915
-0.099605907
-0.012016937
-0.10425372
-0.013230744
-0.10911183
-0.014513201
-0.11418927
-0.015868419
-0.11949658
-0.017301217
-0.12504264
-0.018817021
-0.13083849
-0.020420466
-0.13689495
-0.022117812
-0.14322347
-0.023914329
-0.14983605
-0.025815788
-0.15674626
-0.027828635
-0.1639667
-0.029958613
-0.17151244
-0.032212733
-0.17939834
-0.034596684
-0.187641
-0.037116339
-0.19625798
-0.039778451
-0.20526727
-0.04258817
-0.21468922
-0.04555123
-0.22454474
-0.04867244
-0.2348567
-0.051957043
-0.24564912
-0.055408199
-0.25694826
-0.059029664
-0.26878152
-0.062824618
-0.28117826
-0.06679478
-0.29417017
-0.070941286
-0.3077907
-0.075264768
-0.32207529
-0.079765144
-0.33706124
-0.084441098
-0.35278958
-0.089290993
-0.36930129
-0.094311577
-0.38664224
-0.099499834
-0.40485939
-0.10485112
-0.42400271
-0.11035986
-0.44412518
-0.11602048
-0.46528265
-0.1218249
-0.48753462
-0.12776564
-0.51094291
-0.13383258
-0.5355741
-0.14001533
-0.56149778
-0.14630215
-0.58878798
-0.15267888
-0.61752335
-0.15913035
-0.6477869
-0.16563871
-0.67966692
-0.17218467
-0.71325616
-0.17874577
-0.74865487
-0.18529663
-0.78596755
-0.19180922
-0.82530622
-0.19825086
-0.86678914
-0.20458572
-0.91054197
-0.2107727
-0.95669833
-0.21676606
-1.0054001
-0.22251423
-1.0567978
-0.2279584
-1.1110504
-0.2330332
-1.1683262
-0.23766592
-1.2287972
-0.24177124
-1.2926581
-0.24525692
-1.3600973
-0.24802368
-1.4313233
-0.24995318
-1.506564
-0.2509154
-1.5860405
-0.25077409
-1.6700016
-0.24936607
-1.7587198
-0.2465205
-1.8524925
-0.24205571
-1.9516185
-0.23573974
-2.0564305
-0.22733516
-2.1674435
-2.2844228
-0.00032704773
-0.047714317
-0.00093399652
-0.059385248
-0.0014239507
-0.058178686
-0.0020668274
-0.063115597
-0.0026402248
-0.06495134
-0.0033671104
-0.068518131
-0.0040489633
-0.071527486
-0.0048362198
-0.074938834
-0.0056189237
-0.078458705
-0.0064640114
-0.082097895
-0.0073489316
-0.085963624
-0.0082862985
-0.089967686
-0.0092780531
-0.094169723
-0.010327779
-0.098555887
-0.011439846
-0.10314134
-0.01261883
-0.10793251
-0.013868682
-0.11293905
-0.015195392
-0.11816947
-0.016603807
-0.12363379
-0.01809964
-0.1293422
-0.019688779
-0.13530531
-0.021377295
-0.14153441
-0.023171583
-0.14804118
-0.02507899
-0.15483822
-0.027105109
-0.1619399
-0.029257565
-0.16935924
-0.031542646
-0.17711246
-0.033967337
-0.18521544
-0.036538303
-0.19368607
-0.039261757
-0.2025428
-0.042143573
-0.2118063
-0.045189621
-0.22149749
-0.048405139
-0.23163988
-0.051794269
-0.24225858
-0.055361309
-0.25337969
-0.059109801
-0.26503136
-0.063041926
-0.27724433
-0.067159924
-0.29005022
-0.071465083
-0.30348342
-0.075957905
-0.31758017
-0.080638145
-0.33237851
-0.085505699
-0.34791932
-0.090558381
-0.36424568
-0.095794523
-0.38140293
-0.10121154
-0.39943894
-0.106806
-0.41840452
-0.11257423
-0.4383529
-0.11851185
-0.45934065
-0.12461361
-0.48142812
-0.13087364
-0.50467773
-0.13728553
-0.52915664
-0.14384113
-0.55493615
-0.15053199
-0.58209056
-0.15734801
-0.61070023
-0.16427807
-0.64084915
-0.17130935
-0.67262729
-0.17842662
-0.70612984
-0.18561314
-0.74145852
-0.19284972
-0.7787203
-0.20011421
-0.81803014
-0.20738146
-0.85950929
-0.21462289
-0.90328686
-0.22180572
-0.94950063
-0.2288935
-0.99829615
-0.23584381
-1.0498299
-0.24260986
-1.1042653
-0.24913741
-1.161778
-0.25536428
-1.222548
-0.26122328
-1.286775
-0.26664024
-1.3546544
-0.27151952
-1.4264162
-0.27577228
-1.5022818
-0.2792832
-1.5824985
-0.28193473
-1.6673177
-0.28359235
-1.7570291
-0.28411233
-1.8519388
-0.28333386
-1.9523631
-0.2810545
-2.0586798
-0.27708506
-2.171386
-2.2901928
-0.00028482708
-0.0474294
-0.00087236566
-0.05879758
-0.0013227598
-0.057728169
-0.0019454815
-0.062492732
-0.0024969765
-0.064399696
-0.0032008401
-0.067814104
-0.0038475744
-0.070880579
-0.0046103608
-0.074175861
-0.0053617881
-0.077707077
-0.006174553
-0.081284916
-0.0070323999
-0.085105545
-0.0079430562
-0.089056782
-0.0089109745
-0.093201536
-0.0099396752
-0.097526899
-0.0110342
-0.1020465
-0.012199388
-0.10676698
-0.013440913
-0.11169716
-0.014764217
-0.11684577
-0.016175352
-0.12222223
-0.017681154
-0.12783594
-0.019287745
-0.13369822
-0.02100276
-0.13981886
-0.022832699
-0.14621065
-0.024785096
-0.15288519
-0.02686769
-0.15985662
-0.029087427
-0.16713877
-0.031452007
-0.17474707
-0.033968459
-0.18269811
-0.036643375
-0.19101021
-0.0394837
-0.19970144
-0.042495612
-0.20879327
-0.045684262
-0.21830763
-0.049054591
-0.22826823
-0.052611433
-0.2387003
-0.056358459
-0.2496311
-0.06029839
-0.26108974
-0.064434044
-0.27310684
-0.068767196
-0.28571508
-0.073298776
-0.29894968
-0.078029734
-0.31284687
-0.082959938
-0.32744577
-0.088088928
-0.34278758
-0.0934163
-0.35891532
-0.098941281
-0.3758747
-0.10466208
-0.39371462
-0.1105772
-0.4124856
-0.11668448
-0.43224149
-0.12298168
-0.45303897
-0.12946627
-0.47493867
-0.13613469
-0.49800404
-0.14298365
-0.52230197
-0.15000885
-0.54790475
-0.15720506
-0.57488763
-0.16456679
-0.60333121
-0.17208686
-0.63332117
-0.17975734
-0.66494823
-0.18756807
-0.69830978
-0.19550861
-0.73350785
-0.20356528
-0.77065263
-0.21172258
-0.80986088
-0.21996294
-0.85125592
-0.22826551
-0.89497015
-0.23660638
-0.94114439
-0.24495738
-0.98992842
-0.25328773
-1.0414814
-0.26156046
-1.0959728
-0.2697349
-1.1535821
-0.27776083
-1.2144988
-0.28558585
-1.2789249
-0.2931444
-1.3470689
-0.30037062
-1.4191611
-0.30718382
-1.4954378
-0.3134952
-1.5761547
-0.31920127
-1.6615779
-0.3241937
-1.752002
-0.32835524
-1.8477418
-0.33154884
-1.9491339
-0.33361269
-2.0565844
-0.33437758
-2.1705921
-2.290828
-0.00024640788
-0.047182904
-0.00082272351
-0.058221139
-0.0012428952
-0.057307877
-0.0018906001
-0.061844889
-0.0024230992
-0.063867053
-0.0031018996
-0.067135146
-0.0037242982
-0.070258011
-0.0044470021
-0.073452976
-0.0051866487
-0.076967234
-0.0059832756
-0.08048808
-0.006830806
-0.084257787
-0.0077328668
-0.088154478
-0.0086963107
-0.092237828
-0.0097251161
-0.09649781
-0.010825026
-0.10094628
-0.012001817
-0.10558986
-0.01326176
-0.11043686
-0.014611599
-0.11549555
-0.016058207
-0.1207752
-0.017608408
-0.12628528
-0.019270957
-0.13203517
-0.021052462
-0.13803682
-0.022961955
-0.14430058
-0.025006897
-0.15083962
-0.027195295
-0.15766753
-0.029535421
-0.16479789
-0.032034841
-0.17224683
-0.03470068
-0.18003139
-0.037540467
-0.18816946
-0.040560281
-0.19668058
-0.043765778
-0.20558663
-0.047162634
-0.21490953
-0.050755257
-0.22467426
-0.054547777
-0.23490632
-0.058543367
-0.24563393
-0.062744692
-0.25688669
-0.067153808
-0.26869585
-0.071772219
-0.28109463
-0.076601458
-0.29411823
-0.081641989
-0.30780395
-0.086894511
-0.32219065
-0.092359593
-0.33731968
-0.098037521
-0.35323433
-0.10392813
-0.36998078
-0.11003211
-0.38760704
-0.11634984
-0.40616397
-0.12288117
-0.42570593
-0.12962646
-0.44628909
-0.13658582
-0.46797433
-0.14375944
-0.49082503
-0.15114652
-0.51490903
-0.15874728
-0.54029763
-0.16656026
-0.56706775
-0.17458398
-0.59529999
-0.18281647
-0.62508053
-0.19125449
-0.65650136
-0.19989425
-0.6896604
-0.20873017
-0.72466148
-0.21775576
-0.76161567
-0.22696273
-0.80064155
-0.23634012
-0.84186508
-0.24587576
-0.88541986
-0.25555439
-0.93144983
-0.2653583
-0.98010716
-0.2752659
-1.0315549
-0.28525223
-1.085966
-0.29528757
-1.1435245
-0.30533843
-1.2044239
-0.31536274
-1.2688745
-0.32531543
-1.3370882
-0.33514617
-1.4093003
-0.34478721
-1.4857647
-0.35417404
-1.566734
-0.36322673
-1.65249
-0.37186066
-1.743332
-0.37997733
-1.839588
-0.38747655
-1.9415973
-0.39422296
-2.0498045
-0.4000852
-2.1646984
-2.2859739
-0.00021384298
-0.046968976
-0.00079185369
-0.057643009
-0.0011901308
-0.056909484
-0.0018485585
-0.061186326
-0.0023527284
-0.063362743
-0.0030252401
-0.066462481
-0.0036462317
-0.069636854
-0.0043635862
-0.072735444
-0.0051049453
-0.076225683
-0.0059012376
-0.079691582
-0.0067559093
-0.083402891
-0.007669635
-0.087240512
-0.0086507145
-0.091256487
-0.009703992
-0.095444251
-0.010836158
-0.099813808
-0.012053986
-0.1043717
-0.013364736
-0.10912575
-0.014775858
-0.11408403
-0.016295926
-0.11925471
-0.017933028
-0.12464772
-0.019695613
-0.13027209
-0.02159279
-0.1361391
-0.023632897
-0.14225988
-0.025824846
-0.14864702
-0.028177548
-0.15531413
-0.030698592
-0.16227608
-0.033395981
-0.16954861
-0.036277146
-0.17714932
-0.039348944
-0.18509668
-0.042616657
-0.1934118
-0.04608671
-0.20211542
-0.049762888
-0.21123209
-0.053649842
-0.22078593
-0.057750166
-0.2308045
-0.062066452
-0.24131601
-0.06660138
-0.25235
-0.071356598
-0.26393872
-0.076333357
-0.27611579
-0.081533126
-0.28891621
-0.086957456
-0.30237716
-0.092607632
-0.31653781
-0.098485242
-0.33143918
-0.10459178
-0.34712466
-0.11092969
-0.36363947
-0.11750119
-0.38103185
-0.12430857
-0.3993526
-0.13135538
-0.41865478
-0.13864405
-0.43899571
-0.14617855
-0.46043472
-0.15396215
-0.48303588
-0.16199868
-0.50686647
-0.17029101
-0.53199875
-0.17884298
-0.55850867
-0.1876579
-0.58647734
-0.19673831
-0.61599172
-0.20608667
-0.64714387
-0.21570505
-0.68003208
-0.22559419
-0.71476155
-0.23575411
-0.75144399
-0.24618342
-0.79019944
-0.25688041
-0.83115414
-0.2678402
-0.8744449
-0.27905705
-0.92021644
-0.29052302
-0.9686232
-0.30222759
-1.0198308
-0.31415755
-1.0740147
-0.32629652
-1.1313624
-0.33862207
-1.1920732
-0.35111196
-1.2563575
-0.36373479
-1.3244361
-0.37645103
-1.3965527
-0.38922727
-1.4729551
-0.4020068
-1.5539192
-0.41473354
-1.6397266
-0.42734383
-1.7306839
-0.4397785
-1.8271144
-0.45195248
-1.9293842
-0.46377581
-2.0379457
-0.47514431
-2.1532955
-2.275218
-0.00019295345
-0.046775939
-0.00079041537
-0.05704543
-0.001185015
-0.05651477
-0.0018372344
-0.060533976
-0.0023349336
-0.062864906
-0.0030107781
-0.065786485
-0.003645824
-0.069001645
-0.0043672432
-0.07201385
-0.0051299138
-0.075462821
-0.0059466305
-0.078874661
-0.0068297967
-0.082519502
-0.0077790228
-0.086291047
-0.008803833
-0.090231415
-0.0099103661
-0.094337436
-0.011106427
-0.09861744
-0.01240003
-0.10307777
-0.01379977
-0.10772564
-0.015314656
-0.11256875
-0.016953512
-0.11761543
-0.018726497
-0.12287426
-0.020642633
-0.12835544
-0.02271181
-0.13406937
-0.024943077
-0.14002801
-0.027345752
-0.14624369
-0.029928554
-0.15273061
-0.032699714
-0.15950414
-0.035666362
-0.16658112
-0.038835689
-0.17397907
-0.042213137
-0.18171822
-0.045804613
-0.18981922
-0.049613755
-0.19830508
-0.053644477
-0.20720007
-0.057899806
-0.21652919
-0.062382
-0.22632077
-0.067093189
-0.23660316
-0.072035272
-0.24740611
-0.077209611
-0.25876241
-0.082618365
-0.2707049
-0.088263209
-0.28326905
-0.094146637
-0.29649122
-0.10027135
-0.31041037
-0.10664057
-0.325067
-0.11325834
-0.34050369
-0.12012882
-0.35676551
-0.1272568
-0.3739001
-0.13464818
-0.39195712
-0.14230874
-0.41098977
-0.15024511
-0.4310545
-0.15846402
-0.45221057
-0.16697294
-0.47452125
-0.17577941
-0.49805381
-0.1848919
-0.52287953
-0.19431812
-0.54907513
-0.20406642
-0.57672108
-0.21414458
-0.60590489
-0.22456144
-0.63671758
-0.23532422
-0.66925904
-0.24644063
-0.70363395
-0.25791792
-0.73995453
-0.26976275
-0.77834135
-0.28198051
-0.81892193
-0.29457615
-0.86183352
-0.30755325
-0.90722218
-0.32091404
-0.95524372
-0.33465954
-1.0060649
-0.34878848
-1.0598636
-0.36329712
-1.1168297
-0.3781786
-1.1771656
-0.39342657
-1.2410812
-0.40902164
-1.3088105
-0.42495172
-1.38059
-0.44118936
-1.4566826
-0.4577096
-1.5373622
-0.47448037
-1.6229174
-0.49145859
-1.713666
-0.50860486
-1.8099273
-0.52587067
-1.9120775
-0.5432098
-2.0205691
-0.56054054
-2.1359274
-2.2580888
-0.00017346231
-0.046602395
-0.00079879191
-0.056419988
-0.0011975424
-0.056115909
-0.0018619544
-0.059869436
-0.0023761045
-0.062350619
-0.0030661972
-0.065096244
-0.0037291149
-0.068338567
-0.0044733651
-0.071269427
-0.0052746921
-0.074661305
-0.0061337153
-0.078015435
-0.0070691251
-0.081583869
-0.0080811339
-0.085278799
-0.0091801139
-0.089132172
-0.010373905
-0.093143362
-0.011671705
-0.097319329
-0.013083027
-0.10166611
-0.014617828
-0.10619047
-0.016286445
-0.11089974
-0.0180994
-0.11580203
-0.020066895
-0.12090629
-0.022199624
-0.12622219
-0.024507477
-0.13176095
-0.026999927
-0.13753494
-0.029686402
-0.14355654
-0.032574868
-0.1498414
-0.035672728
-0.15640548
-0.038987204
-0.16326576
-0.042523077
-0.17044224
-0.046285393
-0.17795487
-0.050277811
-0.18582568
-0.054503418
-0.19407824
-0.058964889
-0.20273726
-0.063663202
-0.21182943
-0.068601221
-0.22138118
-0.073780031
-0.23142264
-0.079201275
-0.24198301
-0.084867591
-0.25309408
-0.09078105
-0.26478926
-0.096945687
-0.27710204
-0.10336518
-0.29006916
-0.1100441
-0.30372865
-0.11698798
-0.31812009
-0.12420353
-0.33328485
-0.13169769
-0.34926779
-0.13947855
-0.36611536
-0.14755513
-0.38387634
-0.1559368
-0.40260353
-0.16463379
-0.42235255
-0.17365733
-0.44318165
-0.18301867
-0.46515405
-0.19273025
-0.48833585
-0.20280399
-0.51279886
-0.21325385
-0.53861773
-0.22409271
-0.56587401
-0.23533497
-0.59465369
-0.24699411
-0.6250487
-0.25908509
-0.65715745
-0.27162209
-0.69108539
-0.28461948
-0.72694454
-0.29809244
-0.76485464
-0.31205457
-0.8049448
-0.32652018
-0.84735156
-0.34150308
-0.89222146
-0.35701633
-0.93971104
-0.37307196
-0.98998811
-0.38968183
-1.0432307
-0.40685644
-1.09963
-0.42460526
-1.1593895
-0.44293193
-1.222725
-0.46184196
-1.2898687
-0.48133579
-1.361062
-0.50141329
-1.4365687
-0.52206732
-1.5166697
-0.54328306
-1.6016615
-0.56505431
-1.6918532
-0.58735842
-1.7875804
-0.61018677
-1.8892064
-0.63351881
-1.9971971
-0.65731796
-2.1120872
-2.2340441
-0.00015960305
-0.04644271
-0.00082733621
-0.055752144
-0.0012361317
-0.055707003
-0.0019287689
-0.059176672
-0.0024741141
-0.061805139
-0.0031919243
-0.064378286
-0.0039048672
-0.067625463
-0.0046923519
-0.070481769
-0.0055556268
-0.07379784
-0.0064843364
-0.077086521
-0.0075015342
-0.080566446
-0.008609568
-0.084170523
-0.0098199701
-0.087921504
-0.011142716
-0.091820327
-0.012588595
-0.095873134
-0.014168931
-0.10008543
-0.015895134
-0.10446389
-0.017778751
-0.10901571
-0.019831241
-0.11374909
-0.022063763
-0.11867328
-0.02448677
-0.12379865
-0.027110504
-0.12913663
-0.029944392
-0.13470041
-0.032996108
-0.14050413
-0.0362732
-0.14656355
-0.039781538
-0.15289631
-0.043525775
-0.15952063
-0.04750993
-0.1664571
-0.051736754
-0.17372697
-0.05620817
-0.1813531
-0.060925503
-0.18935965
-0.065890428
-0.19777096
-0.071104021
-0.20661435
-0.076567717
-0.21591587
-0.082283737
-0.22570486
-0.088254553
-0.23601029
-0.094483491
-0.24686308
-0.10097556
-0.25829495
-0.10773511
-0.27034006
-0.1147692
-0.28303243
-0.12208477
-0.29641022
-0.12969121
-0.31051054
-0.13759705
-0.32537564
-0.14581318
-0.341048
-0.15435169
-0.35757288
-0.16322432
-0.3749994
-0.17244485
-0.39337831
-0.18202784
-0.41276447
-0.19198807
-0.43321587
-0.202342
-0.4547941
-0.21310596
-0.47756533
-0.22429835
-0.50159933
-0.23593669
-0.52697161
-0.24804024
-0.55376199
-0.26062921
-0.5820555
-0.27372384
-0.611944
-0.28734501
-0.64352529
-0.30151525
-0.67690317
-0.31625669
-0.71219003
-0.33159179
-0.74950528
-0.34754421
-0.78897681
-0.36413803
-0.83074075
-0.38139724
-0.87494371
-0.39934572
-0.92174234
-0.41800909
-0.9713027
-0.43741178
-1.023804
-0.45757827
-1.0794373
-0.47853271
-1.1384067
-0.5002971
-1.2009299
-0.52289623
-1.2672363
-0.5463493
-1.3375732
-0.57067402
-1.412206
-0.59588836
-1.4914151
-0.62200931
-1.5754984
-0.64904408
-1.6647746
-0.67700554
-1.7595739
-0.70590507
-1.8602622
-0.73577016
-1.9672892
-0.76659107
-2.081221
-2.2024617
-0.00015193491
-0.046290695
-0.00088134851
-0.055022622
-0.0013026467
-0.055285595
-0.0020401678
-0.058439026
-0.0026343213
-0.061210851
-0.0033982734
-0.063614188
-0.0041839714
-0.066839604
-0.005039784
-0.069625783
-0.0059907496
-0.072846683
-0.0070206888
-0.076056376
-0.0081550868
-0.079431821
-0.0093998472
-0.082925517
-0.010768064
-0.086553015
-0.012271823
-0.090316275
-0.0139238
-0.094220832
-0.015736702
-0.09827217
-0.017723252
-0.10247696
-0.019895781
-0.10684276
-0.022266251
-0.11137816
-0.024845813
-0.11609321
-0.027644831
-0.12099908
-0.030672174
-0.12610868
-0.033935499
-0.13143642
-0.037441482
-0.13699742
-0.04119456
-0.14280969
-0.045198695
-0.14889132
-0.049455617
-0.15526277
-0.053966986
-0.16194472
-0.058733711
-0.16895915
-0.063756018
-0.1763296
-0.069034741
-0.18407962
-0.074570374
-0.19223392
-0.080364794
-0.2008184
-0.086419985
-0.20985901
-0.09273966
-0.21938339
-0.099327676
-0.22942032
-0.10619024
-0.23999839
-0.11333358
-0.25114932
-0.12076671
-0.26290443
-0.1284982