/*--------------------------------*- C++ -*----------------------------------*\
| =========                 |                                                 |
| \\      /  F ield         | OpenFOAM: The Open Source CFD Toolbox           |
|  \\    /   O peration     | Version:  2512                                  |
|   \\  /    A nd           | Website:  www.openfoam.com                      |
|    \\/     M anipulation  |                                                 |
\*---------------------------------------------------------------------------*/
FoamFile
{
    version     2.0;
    format      ascii;
    arch        "LSB;label=32;scalar=64";
    class       volScalarField;
    location    "0.148";
    object      rho;
}
// * * * * * * * * * * * * * * * * * * * * * * * * * * * * * * * * * * * * * //

dimensions      [1 -3 0 0 0 0 0];

internalField   nonuniform List<scalar> 
16000
(
1.064158
1.0947803
1.0783251
1.0885148
1.0825536
1.0869179
1.0850196
1.0871745
1.086924
1.0882163
1.0887023
1.0897081
1.0905136
1.0914815
1.0924409
1.0934643
1.0945234
1.0956279
1.0967746
1.0979642
1.0991962
1.1004704
1.1017862
1.1031429
1.1045397
1.1059755
1.107449
1.1089585
1.1105022
1.112078
1.1136835
1.1153159
1.1169724
1.1186495
1.1203439
1.1220516
1.1237689
1.1254914
1.1272149
1.1289349
1.130647
1.1323467
1.1340295
1.1356912
1.1373275
1.1389344
1.1405082
1.1420453
1.1435426
1.1449973
1.1464067
1.1477687
1.1490815
1.1503436
1.1515538
1.1527113
1.1538156
1.1548662
1.1558631
1.1568065
1.1576964
1.1585332
1.1593174
1.1600496
1.1607303
1.1613602
1.16194
1.1624705
1.1629521
1.1633851
1.163769
1.1641041
1.1643919
1.1646344
1.1648317
1.1649947
1.1651272
1.1650364
1.1656271
1.1644373
1.060931
1.0921053
1.075011
1.0858407
1.0795553
1.0842899
1.0822041
1.0845921
1.0843031
1.0857117
1.0862508
1.0873308
1.088217
1.0892597
1.0903045
1.0914118
1.0925601
1.0937558
1.094997
1.0962835
1.0976151
1.0989909
1.1004103
1.1018721
1.1033753
1.1049182
1.1064992
1.1081162
1.1097668
1.1114484
1.1131581
1.1148925
1.1166481
1.1184211
1.1202074
1.1220026
1.1238022
1.1256016
1.1273959
1.1291805
1.1309504
1.1327011
1.1344279
1.1361265
1.1377928
1.1394229
1.1410133
1.1425609
1.1440629
1.1455169
1.1469208
1.1482732
1.1495727
1.1508184
1.1520097
1.1531464
1.1542284
1.1552558
1.1562292
1.1571488
1.1580154
1.1588295
1.1595918
1.1603032
1.1609643
1.1615758
1.1621387
1.1626535
1.1631207
1.1635405
1.1639125
1.1642366
1.1645137
1.1647455
1.1649347
1.1650897
1.165181
1.1652007
1.1655919
1.1645395
1.0581259
1.0896498
1.0722617
1.0833356
1.0769578
1.0818457
1.0797822
1.082251
1.0820352
1.083509
1.0841364
1.0852885
1.0862663
1.0873927
1.0885311
1.089732
1.0909781
1.092274
1.0936179
1.0950094
1.0964478
1.0979321
1.0994613
1.101034
1.1026485
1.1043028
1.1059949
1.1077221
1.1094815
1.1112699
1.1130837
1.114919
1.1167715
1.1186369
1.1205103
1.1223868
1.1242613
1.1261287
1.1279839
1.1298216
1.1316369
1.133425
1.1351813
1.1369015
1.1385819
1.1402188
1.1418091
1.1433503
1.14484
1.1462765
1.1476585
1.148985
1.1502555
1.1514696
1.1526275
1.1537295
1.154776
1.1557678
1.1567057
1.1575906
1.1584234
1.159205
1.1599364
1.1606185
1.1612521
1.1618381
1.1623772
1.1628701
1.1633174
1.163719
1.1640745
1.1643837
1.164647
1.1648661
1.1650457
1.1651867
1.1652579
1.1653321
1.1655332
1.1647135
1.0556296
1.0874623
1.0697219
1.0811224
1.0745992
1.0797441
1.0776644
1.0802675
1.0801128
1.0816773
1.0824026
1.0836408
1.0847249
1.0859483
1.0871937
1.088501
1.0898573
1.0912651
1.0927231
1.0942306
1.0957865
1.0973898
1.0990388
1.1007318
1.1024668
1.1042412
1.1060522
1.1078967
1.1097709
1.1116709
1.1135923
1.1155304
1.1174803
1.1194366
1.1213939
1.1233466
1.1252891
1.1272157
1.1291209
1.1309993
1.1328459
1.1346558
1.1364247
1.1381486
1.139824
1.141448
1.143018
1.1445321
1.1459889
1.1473874
1.148727
1.1500076
1.1512294
1.152393
1.153499
1.1545486
1.1555427
1.1564827
1.1573699
1.1582055
1.1589908
1.1597269
1.1604152
1.1610565
1.161652
1.1622024
1.1627085
1.1631709
1.1635902
1.1639662
1.1642984
1.1645861
1.1648295
1.1650307
1.1651937
1.165314
1.1653759
1.1654533
1.165556
1.1648662
1.0535208
1.0856763
1.0676086
1.0793266
1.072586
1.0780209
1.0759561
1.0786817
1.0786176
1.0802733
1.0811169
1.0824481
1.0836498
1.0849793
1.0863402
1.0877626
1.0892373
1.0907657
1.0923467
1.0939792
1.0956619
1.0973932
1.0991711
1.1009933
1.1028569
1.1047587
1.106695
1.1086618
1.1106545
1.1126682
1.1146975
1.1167369
1.1187804
1.1208219
1.1228552
1.1248742
1.1268725
1.1288443
1.1307837
1.1326854
1.1345443
1.1363559
1.1381163
1.139822
1.1414702
1.1430587
1.144586
1.1460509
1.147453
1.1487923
1.1500691
1.1512842
1.1524387
1.1535339
1.1545714
1.1555528
1.1564798
1.1573541
1.1581776
1.1589518
1.1596783
1.1603586
1.1609939
1.1615855
1.1621344
1.1626413
1.1631071
1.1635323
1.1639173
1.164262
1.1645656
1.1648271
1.1650465
1.1652258
1.1653676
1.165466
1.1655161
1.1655805
1.1656014
1.1650407
1.0518095
1.0842718
1.0659269
1.0779526
1.0711764
1.0767367
1.0746806
1.0775582
1.0775956
1.07935
1.0803216
1.0817487
1.083074
1.084517
1.0860015
1.0875491
1.0891534
1.0908147
1.0925316
1.0943023
1.0961251
1.0979974
1.0999167
1.1018795
1.1038821
1.1059204
1.1079894
1.1100841
1.1121988
1.1143274
1.1164635
1.1186004
1.1207313
1.1228491
1.1249471
1.1270184
1.1290564
1.131055
1.1330085
1.1349115
1.1367595
1.1385486
1.1402755
1.1419376
1.1435332
1.1450611
1.1465208
1.1479123
1.1492364
1.1504941
1.1516867
1.1528162
1.1538844
1.1548935
1.1558458
1.1567435
1.1575889
1.1583842
1.1591315
1.1598328
1.1604898
1.1611042
1.1616774
1.1622106
1.1627048
1.163161
1.1635796
1.1639611
1.1643059
1.1646137
1.1648835
1.1651141
1.1653052
1.1654583
1.1655744
1.165649
1.1656842
1.165721
1.1656838
1.1652271
1.0504929
1.0832619
1.0646643
1.0769958
1.0701607
1.0759012
1.0739179
1.0769024
1.077072
1.0788908
1.0799999
1.0815314
1.0829945
1.084568
1.0861936
1.0878854
1.0896383
1.0914513
1.0933223
1.095249
1.0972286
1.0992576
1.1013324
1.1034484
1.1056007
1.1077838
1.1099917
1.1122178
1.1144551
1.1166962
1.1189337
1.1211596
1.1233663
1.1255459
1.127691
1.1297946
1.1318498
1.1338507
1.1357919
1.1376687
1.1394773
1.1412148
1.1428791
1.1444688
1.1459834
1.1474231
1.1487888
1.1500819
1.1513041
1.1524579
1.1535456
1.1545702
1.1555343
1.1564409
1.1572929
1.1580932
1.1588444
1.1595491
1.1602097
1.1608284
1.161407
1.1619474
1.1624509
1.1629187
1.1633519
1.1637512
1.164117
1.1644497
1.1647494
1.1650158
1.1652476
1.1654436
1.1656029
1.1657263
1.1658134
1.165863
1.1658804
1.1658812
1.1657944
1.1654398
1.0495056
1.0825828
1.0637532
1.0764418
1.0695481
1.0755099
1.0735416
1.076705
1.076917
1.0788599
1.0801468
1.0818142
1.083444
1.0851762
1.0869686
1.0888292
1.090754
1.0927411
1.0947877
1.0968902
1.099045
1.1012473
1.1034921
1.1057734
1.1080849
1.1104194
1.1127693
1.1151265
1.1174826
1.1198288
1.1221563
1.1244563
1.1267203
1.1289399
1.1311073
1.1332156
1.1352584
1.1372301
1.1391263
1.1409435
1.1426791
1.1443316
1.1459004
1.1473859
1.1487891
1.1501118
1.1513564
1.1525257
1.1536228
1.1546512
1.1556146
1.1565164
1.1573603
1.1581499
1.1588887
1.1595797
1.1602261
1.1608307
1.1613959
1.1619241
1.1624172
1.162877
1.1633048
1.1637018
1.1640689
1.1644065
1.1647151
1.1649949
1.1652456
1.1654669
1.1656574
1.1658156
1.1659404
1.166031
1.1660867
1.1661104
1.1661064
1.166064
1.1659388
1.1656816
1.0488665
1.0822436
1.0631989
1.0763154
1.0692547
1.075342
1.0735112
1.0767806
1.0773102
1.0793721
1.0808624
1.0826884
1.0845076
1.0864237
1.0884071
1.0904613
1.0925823
1.0947668
1.0970109
1.0993098
1.1016581
1.1040495
1.1064773
1.1089336
1.1114103
1.1138982
1.1163879
1.1188697
1.1213335
1.1237692
1.1261668
1.1285169
1.1308103
1.1330386
1.1351943
1.137271
1.1392631
1.1411666
1.1429784
1.1446967
1.1463208
1.1478512
1.1492892
1.150637
1.1518977
1.1530747
1.1541719
1.1551935
1.1561441
1.157028
1.1578498
1.1586137
1.1593241
1.159985
1.1606
1.1611728
1.1617064
1.1622037
1.1626674
1.1630996
1.1635022
1.1638769
1.164225
1.1645473
1.1648448
1.1651176
1.165366
1.1655899
1.165789
1.1659627
1.1661095
1.1662278
1.166316
1.1663717
1.1663945
1.1663921
1.166363
1.1662724
1.1661189
1.1659573
1.0486192
1.0822895
1.0630473
1.0765265
1.0694
1.07587
1.0741858
1.0775703
1.0782831
1.0804886
1.0822124
1.0842273
1.0862635
1.0883936
1.0905965
1.0928723
1.095216
1.097623
1.1000876
1.102603
1.105162
1.1077562
1.1103764
1.1130127
1.1156544
1.1182905
1.1209095
1.1234998
1.1260498
1.1285484
1.1309849
1.1333492
1.1356326
1.1378271
1.1399264
1.1419253
1.1438202
1.145609
1.147291
1.1488666
1.1503377
1.151707
1.1529782
1.1541554
1.1552437
1.1562482
1.1571743
1.1580274
1.1588131
1.1595367
1.1602033
1.1608178
1.1613848
1.1619084
1.1623927
1.1628411
1.1632568
1.1636426
1.164001
1.164334
1.1646434
1.1649306
1.1651967
1.1654426
1.1656685
1.1658749
1.1660614
1.166228
1.1663741
1.1664987
1.1666005
1.1666778
1.1667282
1.1667477
1.1667375
1.1667092
1.1666515
1.1665105
1.1663396
1.1662687
1.0488376
1.0827971
1.0633715
1.0770735
1.0701087
1.076714
1.075388
1.0788207
1.079919
1.0822919
1.0842838
1.0865235
1.0888084
1.0911856
1.0936394
1.0961669
1.0987617
1.1014167
1.1041241
1.1068746
1.1096582
1.1124638
1.1152794
1.1180923
1.1208894
1.1236573
1.1263824
1.1290517
1.1316523
1.1341725
1.1366016
1.1389302
1.1411505
1.1432563
1.1452434
1.1471091
1.1488527
1.1504749
1.1519779
1.1533652
1.1546413
1.1558114
1.1568817
1.1578583
1.158748
1.1595573
1.1602929
1.1609612
1.1615684
1.1621204
1.1626227
1.1630803
1.1634979
1.1638797
1.1642297
1.1645511
1.1648469
1.1651198
1.1653718
1.165605
1.1658207
1.1660202
1.1662042
1.1663733
1.1665278
1.1666675
1.1667921
1.1669012
1.166994
1.1670692
1.1671258
1.1671621
1.1671743
1.1671575
1.1671153
1.1670616
1.1669722
1.1667819
1.1666055
1.1666189
1.0495798
1.0838274
1.0642567
1.078337
1.0715733
1.0783459
1.07724
1.0808956
1.0823065
1.0848805
1.0871749
1.0896804
1.0922502
1.0949118
1.0976518
1.1004638
1.1033389
1.1062672
1.1092373
1.1122368
1.1152522
1.1182688
1.1212716
1.1242448
1.1271727
1.1300394
1.1328301
1.1355303
1.1381273
1.1406096
1.1429678
1.1451946
1.1472848
1.1492353
1.1510452
1.1527157
1.1542495
1.1556512
1.1569262
1.1580811
1.1591234
1.1600608
1.1609012
1.1616527
1.1623234
1.162921
1.1634527
1.1639257
1.1643464
1.1647208
1.1650545
1.1653525
1.1656192
1.1658587
1.1660744
1.1662695
1.1664466
1.1666079
1.1667553
1.1668903
1.1670142
1.1671276
1.1672312
1.1673252
1.1674096
1.1674841
1.1675481
1.1676008
1.1676413
1.1676682
1.1676805
1.1676763
1.167651
1.1675991
1.1675272
1.1674486
1.1673247
1.167089
1.1669197
1.1670115
1.0508331
1.0853645
1.0656852
1.0801142
1.0736599
1.0805885
1.0799014
1.0837044
1.0855347
1.0883571
1.0909975
1.0938185
1.0967171
1.0997056
1.1027702
1.1059006
1.1090841
1.1123066
1.1155525
1.118805
1.1220465
1.1252586
1.1284226
1.1315196
1.1345315
1.1374411
1.1402328
1.1428927
1.1454093
1.1477739
1.1499801
1.1520244
1.1539061
1.1556266
1.1571899
1.1586014
1.1598682
1.1609986
1.1620015
1.1628865
1.1636634
1.1643419
1.1649315
1.1654415
1.1658807
1.1662573
1.1665789
1.1668526
1.1670848
1.1672814
1.1674475
1.1675878
1.1677064
1.1678067
1.1678919
1.1679645
1.1680269
1.1680807
1.1681275
1.1681683
1.168204
1.168235
1.1682616
1.1682837
1.1683011
1.1683131
1.168319
1.1683178
1.1683081
1.1682887
1.1682587
1.1682157
1.1681543
1.1680697
1.1679715
1.1678685
1.167708
1.1674339
1.1672853
1.1674454
1.0526829
1.0874873
1.0677645
1.0826411
1.0764452
1.0836368
1.0834269
1.0874356
1.0897328
1.0928633
1.0958982
1.0990905
1.102367
1.1057277
1.1091557
1.1126351
1.116148
1.1196749
1.1231951
1.1266867
1.1301273
1.1334943
1.1367657
1.1399206
1.1429396
1.1458059
1.1485056
1.1510277
1.1533651
1.1555137
1.1574729
1.159245
1.1608352
1.1622506
1.1635004
1.1645946
1.1655447
1.1663622
1.167059
1.167647
1.1681375
1.1685415
1.1688694
1.1691309
1.1693348
1.1694893
1.1696019
1.1696792
1.1697271
1.169751
1.1697553
1.1697442
1.1697212
1.1696891
1.1696505
1.1696074
1.1695616
1.1695142
1.1694664
1.1694188
1.1693718
1.1693256
1.1692801
1.1692349
1.1691894
1.169143
1.1690945
1.1690427
1.1689862
1.1689236
1.168854
1.1687746
1.1686795
1.1685662
1.1684457
1.1683187
1.1681208
1.1678198
1.167705
1.1679163
1.0551871
1.0902425
1.0706144
1.0859256
1.0801073
1.0875703
1.0879619
1.0922108
1.0950518
1.0985682
1.1020585
1.1056853
1.1093924
1.1131689
1.116992
1.1208393
1.1246862
1.1285066
1.1322736
1.1359596
1.1395376
1.1429816
1.1462679
1.1493758
1.152288
1.1549914
1.1574775
1.159742
1.1617846
1.1636091
1.1652222
1.1666336
1.1678547
1.1688986
1.1697792
1.1705111
1.1711085
1.1715858
1.1719565
1.1722338
1.1724297
1.1725556
1.1726216
1.1726373
1.172611
1.1725503
1.172462
1.1723518
1.172225
1.172086
1.1719386
1.1717862
1.1716314
1.1714765
1.1713234
1.1711735
1.171028
1.1708876
1.1707528
1.1706241
1.1705013
1.1703842
1.1702726
1.1701657
1.1700627
1.1699627
1.1698645
1.1697665
1.1696672
1.1695654
1.1694599
1.1693471
1.1692216
1.1690843
1.1689462
1.1687952
1.1685608
1.1682482
1.1681788
1.1684199
1.0584128
1.0936619
1.0743988
1.0900793
1.0848459
1.0925452
1.0936744
1.0982448
1.1017094
1.1057027
1.1097141
1.113836
1.1180192
1.1222418
1.1264735
1.130683
1.1348375
1.1389031
1.142846
1.1466339
1.1502371
1.1536296
1.1567903
1.1597034
1.1623589
1.1647521
1.1668841
1.1687603
1.1703902
1.1717865
1.1729642
1.1739397
1.1747307
1.1753549
1.17583
1.176173
1.1764003
1.1765272
1.1765679
1.1765355
1.1764417
1.1762973
1.1761117
1.1758934
1.1756499
1.1753876
1.1751123
1.1748287
1.1745411
1.1742529
1.1739671
1.1736861
1.1734118
1.1731458
1.1728893
1.1726431
1.1724078
1.1721837
1.1719708
1.1717692
1.1715783
1.1713977
1.1712267
1.1710645
1.1709101
1.1707622
1.1706194
1.1704803
1.170343
1.1702067
1.1700693
1.1699268
1.1697752
1.1696191
1.1694677
1.1692936
1.1690252
1.168717
1.1687035
1.1689473
1.0624422
1.097834
1.0792049
1.0952638
1.0908087
1.0988129
1.1008347
1.105822
1.1099889
1.114548
1.1191395
1.1238037
1.1284895
1.1331621
1.1377801
1.1423011
1.1466825
1.1508831
1.1548653
1.1585963
1.16205
1.1652071
1.1680561
1.1705928
1.1728197
1.1747453
1.1763828
1.1777492
1.1788641
1.1797487
1.1804251
1.1809152
1.1812405
1.1814217
1.1814781
1.1814278
1.1812872
1.1810713
1.1807935
1.1804659
1.1800991
1.1797024
1.179284
1.1788509
1.1784093
1.1779643
1.1775203
1.1770811
1.1766496
1.1762284
1.1758195
1.1754245
1.1750445
1.1746803
1.1743326
1.1740015
1.1736872
1.1733895
1.173108
1.1728422
1.1725916
1.1723553
1.1721323
1.1719216
1.1717221
1.1715323
1.1713508
1.1711759
1.1710061
1.1708401
1.1706754
1.1705075
1.1703347
1.170165
1.1700037
1.1698085
1.1695116
1.1692205
1.1692702
1.1694935
1.067461
1.103216
1.0852865
1.1018075
1.0983484
1.1067085
1.1097709
1.115277
1.1202135
1.1254181
1.1306355
1.1358635
1.14104
1.1461129
1.1510267
1.1557283
1.160169
1.1643069
1.1681092
1.1715527
1.1746243
1.1773208
1.1796477
1.1816178
1.1832498
1.1845667
1.1855942
1.1863596
1.1868906
1.1872146
1.1873577
1.1873448
1.1871987
1.1869405
1.1865892
1.1861619
1.1856737
1.1851379
1.1845663
1.1839691
1.183355
1.1827316
1.1821054
1.1814817
1.1808652
1.1802595
1.1796679
1.1790928
1.1785362
1.1779996
1.177484
1.1769904
1.176519
1.1760702
1.1756438
1.1752396
1.1748573
1.1744962
1.1741556
1.1738348
1.1735329
1.1732486
1.1729811
1.1727289
1.1724909
1.1722655
1.1720512
1.1718462
1.1716493
1.1714587
1.1712715
1.1710832
1.1708945
1.1707157
1.1705463
1.1703337
1.1700199
1.1697542
1.1698633
1.1700645
1.073763
1.1100373
1.0928438
1.110058
1.1078248
1.1165798
1.1208371
1.1269887
1.1327593
1.1386708
1.1445227
1.1502729
1.1558414
1.1611591
1.1661618
1.1707951
1.1750174
1.1788005
1.1821302
1.1850056
1.1874368
1.1894433
1.1910515
1.1922929
1.1932013
1.1938121
1.1941603
1.1942796
1.1942021
1.1939573
1.1935723
1.1930715
1.1924766
1.1918069
1.1910791
1.1903082
1.1895066
1.1886854
1.1878538
1.1870198
1.18619
1.18537
1.1845644
1.183777
1.1830107
1.182268
1.1815507
1.1808603
1.1801976
1.1795632
1.1789575
1.1783806
1.1778321
1.1773118
1.1768191
1.1763534
1.1759137
1.1754992
1.175109
1.1747419
1.1743967
1.1740724
1.1737674
1.1734806
1.1732106
1.1729557
1.1727143
1.1724849
1.1722663
1.1720562
1.1718513
1.1716479
1.1714491
1.1712651
1.1710883
1.1708621
1.1705466
1.1703162
1.1704749
1.17065
1.0816218
1.1185663
1.1023528
1.1202819
1.1196557
1.128892
1.134506
1.1414472
1.1480811
1.1546813
1.1610633
1.1671508
1.1728527
1.1780982
1.1828335
1.1870246
1.1906569
1.1937334
1.1962721
1.1983024
1.199862
1.2009937
1.2017428
1.2021549
1.2022742
1.2021426
1.2017988
1.2012783
1.2006125
1.1998297
1.1989543
1.1980079
1.1970091
1.1959736
1.194915
1.193845
1.192773
1.1917073
1.1906545
1.1896202
1.1886087
1.1876239
1.1866683
1.1857444
1.1848536
1.1839972
1.1831758
1.1823899
1.1816395
1.1809244
1.1802443
1.1795986
1.1789865
1.1784072
1.1778598
1.1773432
1.1768563
1.1763978
1.1759666
1.1755614
1.1751809
1.1748235
1.1744881
1.1741731
1.173877
1.1735984
1.1733356
1.1730872
1.1728518
1.1726271
1.1724093
1.1721962
1.1719928
1.171807
1.1716238
1.1713879
1.1710842
1.1709004
1.1710978
1.1712337
1.0912429
1.1291001
1.1145752
1.1330863
1.1345315
1.1443671
1.1514197
1.159207
1.1665861
1.1736562
1.1802417
1.1862572
1.1916298
1.1963186
1.20031
1.2036145
1.2062622
1.2082976
1.2097746
1.210752
1.2112902
1.2114483
1.2112823
1.2108439
1.2101801
1.2093326
1.2083381
1.2072287
1.2060318
1.2047711
1.2034665
1.2021351
1.2007908
1.1994457
1.1981094
1.19679
1.195494
1.1942267
1.1929924
1.1917943
1.1906348
1.1895159
1.1884389
1.1874044
1.186413
1.1854646
1.1845592
1.1836962
1.182875
1.1820947
1.1813545
1.1806532
1.1799898
1.1793629
1.1787712
1.1782135
1.1776884
1.1771944
1.1767302
1.1762943
1.1758853
1.1755016
1.1751418
1.1748044
1.174488
1.1741909
1.1739116
1.173649
1.1734015
1.1731664
1.1729403
1.1727227
1.1725195
1.172335
1.1721473
1.171907
1.1716245
1.1714935
1.1717143
1.1718009
1.1034307
1.1425434
1.1303034
1.1494482
1.1533954
1.1638544
1.1721777
1.1805962
1.1883032
1.1953102
1.2014899
1.2067985
1.2112236
1.2147896
1.2175457
1.2195591
1.2209071
1.2216713
1.2219324
1.2217672
1.2212465
1.2204341
1.2193864
1.2181524
1.2167743
1.215288
1.2137239
1.2121075
1.2104598
1.2087986
1.2071381
1.2054902
1.2038644
1.2022686
1.2007087
1.1991895
1.1977149
1.1962874
1.1949091
1.1935815
1.1923051
1.1910805
1.1899076
1.188786
1.1877153
1.1866945
1.1857228
1.184799
1.1839219
1.1830902
1.1823024
1.1815572
1.180853
1.1801883
1.1795616
1.1789713
1.1784159
1.1778938
1.1774035
1.1769434
1.1765119
1.1761076
1.1757289
1.1753744
1.1750423
1.1747314
1.1744402
1.1741676
1.1739117
1.1736699
1.1734397
1.1732219
1.1730225
1.1728412
1.1726522
1.1724152
1.1721616
1.1720775
1.1723007
1.1723382
1.1196537
1.1600094
1.1508746
1.1703678
1.1770826
1.1879496
1.1969169
1.2052797
1.2125014
1.2186031
1.2235654
1.2274381
1.2302999
1.2322531
1.2334095
1.2338826
1.2337811
1.2332052
1.2322443
1.2309766
1.2294693
1.2277795
1.2259549
1.2240353
1.2220533
1.2200358
1.2180046
1.2159773
1.2139682
1.2119885
1.2100473
1.2081513
1.2063061
1.2045155
1.2027827
1.2011094
1.1994972
1.1979466
1.1964579
1.1950308
1.1936648
1.1923591
1.1911126
1.1899241
1.1887923
1.1877158
1.1866929
1.1857221
1.1848017
1.18393
1.1831053
1.1823258
1.1815899
1.1808957
1.1802416
1.1796259
1.1790468
1.1785028
1.1779922
1.1775133
1.1770646
1.1766445
1.1762514
1.1758839
1.1755405
1.1752196
1.1749202
1.1746409
1.1743799
1.1741346
1.1739035
1.1736888
1.1734952
1.1733181
1.173131
1.172905
1.172686
1.1726387
1.1728463
1.1728512
1.1415627
1.1827246
1.1776006
1.196696
1.2056962
1.2162835
1.2247526
1.2319046
1.2375476
1.2417937
1.2447569
1.2465959
1.2474738
1.2475511
1.246975
1.2458765
1.2443684
1.2425462
1.2404892
1.2382627
1.2359197
1.2335031
1.2310471
1.2285791
1.2261207
1.223689
1.2212972
1.2189554
1.2166715
1.2144511
1.2122986
1.2102167
1.2082074
1.2062718
1.2044101
1.2026223
1.2009078
1.1992657
1.1976948
1.1961937
1.1947608
1.1933944
1.1920928
1.1908541
1.1896764
1.1885578
1.1874962
1.1864897
1.1855363
1.1846341
1.1837811
1.1829753
1.1822149
1.1814981
1.1808228
1.1801874
1.1795901
1.1790292
1.1785029
1.1780097
1.1775478
1.1771158
1.1767121
1.1763352
1.1759836
1.175656
1.1753512
1.1750679
1.1748042
1.1745579
1.1743286
1.1741189
1.1739317
1.1737592
1.1735765
1.1733672
1.1731857
1.1731706
1.1733542
1.1733162
1.17175
1.2112794
1.2113698
1.2290633
1.2379805
1.2468874
1.2534531
1.258207
1.2612673
1.2629132
1.263385
1.2629173
1.2617122
1.2599421
1.2577488
1.2552476
1.2525306
1.2496708
1.2467253
1.2437388
1.2407457
1.2377726
1.2348395
1.2319619
1.2291509
1.226415
1.22376
1.2211898
1.2187072
1.2163134
1.2140089
1.2117936
1.2096666
1.2076269
1.2056729
1.2038028
1.2020148
1.2003067
1.1986764
1.1971216
1.1956401
1.1942295
1.1928875
1.1916119
1.1904002
1.1892502
1.1881597
1.1871264
1.1861482
1.1852228
1.1843482
1.1835224
1.1827433
1.1820089
1.1813174
1.1806668
1.1800554
1.1794814
1.1789431
1.1784389
1.1779671
1.1775261
1.1771145
1.1767307
1.1763734
1.1760414
1.1757334
1.1754481
1.1751835
1.1749382
1.1747123
1.1745084
1.1743272
1.1741594
1.1739842
1.1737958
1.1736499
1.1736558
1.1738094
1.1737512
1.2127349
1.2472687
1.250221
1.2642006
1.2717325
1.2773052
1.2804134
1.2817419
1.2816051
1.2803716
1.2783172
1.2756708
1.2726088
1.2692681
1.2657527
1.2621411
1.2584922
1.2548498
1.2512462
1.2477049
1.2442431
1.2408726
1.2376016
1.2344356
1.2313777
1.2284294
1.2255912
1.2228623
1.2202416
1.2177273
1.2153171
1.2130088
1.2107996
1.2086869
1.2066678
1.2047395
1.2028991
1.2011438
1.1994707
1.197877
1.1963599
1.1949167
1.1935447
1.1922413
1.1910039
1.1898301
1.1887173
1.1876632
1.1866656
1.185722
1.1848304
1.1839885
1.1831943
1.1824459
1.1817411
1.1810782
1.1804553
1.1798707
1.1793226
1.1788094
1.1783295
1.1778813
1.1774634
1.1770743
1.1767128
1.1763776
1.1760675
1.175781
1.1755167
1.1752734
1.1750516
1.1748531
1.174677
1.174514
1.1743491
1.174184
1.1740682
1.1740799
1.1741957
1.1741316
1.2619192
1.2880619
1.292315
1.2999894
1.3028694
1.3037402
1.3026792
1.3003681
1.2971622
1.2933704
1.2892067
1.2848289
1.280349
1.2758469
1.2713785
1.2669828
1.2626864
1.2585072
1.2544565
1.2505412
1.2467649
1.2431287
1.2396322
1.2362738
1.2330508
1.2299603
1.2269989
1.2241627
1.2214481
1.2188511
1.2163679
1.2139946
1.2117274
1.2095626
1.2074965
1.2055255
1.2036463
1.2018554
1.2001495
1.1985256
1.1969805
1.1955112
1.1941149
1.1927887
1.19153
1.190336
1.1892043
1.1881323
1.1871177
1.1861581
1.1852513
1.1843951
1.1835874
1.1828261
1.1821093
1.181435
1.1808016
1.1802071
1.17965
1.1791284
1.178641
1.1781861
1.1777623
1.1773684
1.1770029
1.1766647
1.1763526
1.1760653
1.1758014
1.1755602
1.1753422
1.1751481
1.174976
1.1748185
1.1746662
1.1745248
1.1744313
1.1744334
1.1745019
1.1744458
1.3166685
1.3283663
1.3297998
1.3298916
1.3272399
1.3233452
1.3185209
1.3132006
1.3076205
1.3019526
1.2963052
1.2907496
1.2853303
1.2800745
1.2749978
1.270108
1.2654078
1.2608963
1.2565706
1.2524261
1.2484576
1.2446593
1.2410251
1.237549
1.2342249
1.2310469
1.2280092
1.2251063
1.2223327
1.2196835
1.2171536
1.2147383
1.2124332
1.2102339
1.2081362
1.2061363
1.2042303
1.2024145
1.2006855
1.1990399
1.1974744
1.1959859
1.1945715
1.1932281
1.1919531
1.1907436
1.1895971
1.1885111
1.1874831
1.1865108
1.1855918
1.1847241
1.1839054
1.1831337
1.1824071
1.1817236
1.1810815
1.180479
1.1799144
1.179386
1.1788923
1.1784319
1.1780033
1.1776053
1.1772365
1.1768958
1.1765821
1.1762941
1.1760308
1.1757915
1.1755766
1.1753857
1.175217
1.1750653
1.1749262
1.1748055
1.1747258
1.1747117
1.1747413
1.1747016
1.3666509
1.3608942
1.3565223
1.3505489
1.3433516
1.3359347
1.32847
1.3211415
1.3140318
1.3071868
1.300626
1.2943546
1.2883692
1.2826619
1.2772218
1.2720374
1.2670963
1.2623865
1.2578963
1.2536147
1.2495309
1.2456351
1.2419181
1.238371
1.2349857
1.2317547
1.2286707
1.2257272
1.2229178
1.2202367
1.2176783
1.2152374
1.2129091
1.2106886
1.2085717
1.2065539
1.2046314
1.2028003
1.201057
1.1993979
1.1978198
1.1963194
1.1948936
1.1935394
1.1922541
1.1910348
1.189879
1.188784
1.1877474
1.1867669
1.1858401
1.1849648
1.1841389
1.1833603
1.1826272
1.1819375
1.1812895
1.1806815
1.1801117
1.1795785
1.1790804
1.178616
1.1781839
1.1777827
1.1774112
1.1770684
1.176753
1.176464
1.1762006
1.1759622
1.1757485
1.1755591
1.1753921
1.1752447
1.1751157
1.1750093
1.1749368
1.1749077
1.1749083
1.1748855
1.3936663
1.3823478
1.3715475
1.3620963
1.3527757
1.3437828
1.3351933
1.3270242
1.3192759
1.3119325
1.3049743
1.2983786
1.2921232
1.2861864
1.2805479
1.2751887
1.2700914
1.2652401
1.2606201
1.2562181
1.2520218
1.2480199
1.2442021
1.240559
1.2370818
1.2337623
1.2305932
1.2275673
1.2246783
1.2219201
1.2192869
1.2167735
1.2143748
1.212086
1.2099028
1.2078208
1.205836
1.2039445
1.2021426
1.200427
1.1987941
1.1972407
1.1957638
1.1943604
1.1930276
1.1917627
1.1905629
1.1894258
1.1883488
1.1873295
1.1863657
1.1854551
1.1845956
1.1837851
1.1830216
1.1823031
1.181628
1.1809943
1.1804005
1.1798448
1.1793258
1.1788418
1.1783917
1.1779739
1.1775874
1.1772309
1.1769033
1.1766037
1.1763311
1.1760851
1.1758651
1.1756703
1.1754992
1.1753504
1.1752239
1.1751227
1.1750519
1.1750136
1.1749982
1.1749863
1.1643071
1.1704152
1.1831833
1.1944819
1.198583
1.1984169
1.1993866
1.1997767
1.1999252
1.1998503
1.1995435
1.1991052
1.1985336
1.1978936
1.1972113
1.1965004
1.1957585
1.1949903
1.1942
1.1933913
1.1925673
1.191731
1.1908848
1.1900311
1.1891721
1.1883098
1.187446
1.1865825
1.1857211
1.1848634
1.184011
1.1831652
1.1823277
1.1814998
1.1806828
1.1798782
1.1790872
1.1783112
1.1775513
1.1768089
1.1760852
1.1753814
1.1746987
1.1740382
1.1734012
1.1727886
1.1722016
1.1716412
1.1711083
1.1706037
1.1701283
1.1696825
1.169267
1.168882
1.1685276
1.1682039
1.1679108
1.1676477
1.1674142
1.1672092
1.1670315
1.1668795
1.1667513
1.166645
1.1665582
1.1664875
1.166432
1.1663837
1.1663518
1.1663061
1.1662994
1.1662121
1.1662611
1.1660482
1.1662513
1.16575
1.1662524
1.1652961
1.1662238
1.1646613
1.1676397
1.1757846
1.1918814
1.1969794
1.1970621
1.1965882
1.1958661
1.1954977
1.1950727
1.1946057
1.1941052
1.1936398
1.1931726
1.1927025
1.1922086
1.1916907
1.1911481
1.1905824
1.1899941
1.1893841
1.1887537
1.1881042
1.1874374
1.1867552
1.1860593
1.1853519
1.1846348
1.18391
1.1831797
1.1824456
1.1817097
1.180974
1.1802402
1.1795101
1.1787856
1.1780684
1.1773602
1.1766626
1.1759773
1.1753059
1.17465
1.174011
1.1733905
1.1727899
1.1722105
1.1716537
1.1711207
1.1706128
1.1701309
1.1696762
1.1692493
1.168851
1.1684818
1.168142
1.167832
1.1675516
1.1673006
1.1670786
1.166885
1.1667188
1.1665785
1.1664624
1.1663689
1.1662955
1.1662402
1.1661994
1.1661718
1.1661504
1.1661426
1.1661215
1.1661336
1.166071
1.1661305
1.1659439
1.166148
1.1656802
1.1661811
1.165239
1.1662026
1.1645878
1.1583979
1.1740761
1.1861212
1.190777
1.1906072
1.19009
1.1894828
1.1892816
1.1889764
1.1887799
1.1885173
1.1882671
1.1879671
1.1876521
1.1873062
1.1869393
1.1865476
1.186133
1.1856956
1.1852363
1.1847561
1.1842563
1.183738
1.1832025
1.1826511
1.1820855
1.1815069
1.1809172
1.1803178
1.1797105
1.1790971
1.1784792
1.1778587
1.1772375
1.1766173
1.1760001
1.1753876
1.1747817
1.1741843
1.1735971
1.1730219
1.1724605
1.1719145
1.1713856
1.1708754
1.1703854
1.1699169
1.1694715
1.1690502
1.1686542
1.1682844
1.1679415
1.1676262
1.1673389
1.1670797
1.1668487
1.1666457
1.1664702
1.1663214
1.1661984
1.1660996
1.1660233
1.1659677
1.1659305
1.1659093
1.1659008
1.1659034
1.1659107
1.1659287
1.1659332
1.1659658
1.1659281
1.1660001
1.1658387
1.1660459
1.1656088
1.1661086
1.1651824
1.1661787
1.1645192
1.1573591
1.177079
1.1846275
1.1879599
1.186792
1.1864084
1.1856781
1.1854262
1.1849761
1.1846754
1.1842972
1.1839865
1.1836502
1.1833338
1.1830045
1.1826733
1.1823322
1.1819827
1.1816225
1.1812508
1.180867
1.1804703
1.1800607
1.179638
1.1792024
1.1787544
1.1782945
1.1778235
1.1773424
1.1768522
1.1763543
1.1758498
1.1753404
1.1748276
1.1743129
1.1737982
1.1732851
1.1727755
1.1722711
1.1717739
1.1712857
1.1708082
1.1703433
1.1698928
1.1694583
1.1690415
1.1686439
1.1682671
1.1679123
1.1675807
1.1672733
1.166991
1.1667343
1.1665038
1.1662997
1.166122
1.1659704
1.1658445
1.1657434
1.1656662
1.1656112
1.1655767
1.1655608
1.1655612
1.1655755
1.1656003
1.165634
1.1656705
1.1657149
1.1657454
1.1657991
1.1657856
1.1658717
1.1657335
1.1659468
1.1655356
1.166039
1.1651271
1.1661526
1.1644549
1.1550961
1.175107
1.1804929
1.1831597
1.1815184
1.1813901
1.1806232
1.1804966
1.1800584
1.179856
1.1795396
1.1793154
1.1790474
1.1788085
1.1785538
1.178303
1.1780447
1.1777819
1.1775115
1.1772328
1.176945
1.1766473
1.1763393
1.1760206
1.1756911
1.1753508
1.1749999
1.1746388
1.174268
1.1738881
1.1735001
1.1731048
1.1727034
1.1722971
1.1718873
1.1714755
1.1710632
1.1706522
1.170244
1.1698405
1.1694435
1.1690547
1.168676
1.1683092
1.1679559
1.167618
1.167297
1.1669944
1.1667117
1.16645
1.1662103
1.1659936
1.1658005
1.1656315
1.1654868
1.1653664
1.1652701
1.1651973
1.1651472
1.1651187
1.1651102
1.1651198
1.1651457
1.1651856
1.1652369
1.1652964
1.1653623
1.1654291
1.1655007
1.1655575
1.1656331
1.1656436
1.1657448
1.1656294
1.1658496
1.1654629
1.1659706
1.1650733
1.166124
1.164395
1.1497991
1.172032
1.1757577
1.1781987
1.1762726
1.1764988
1.1757025
1.175726
1.1753081
1.1751977
1.1749237
1.1747727
1.1745638
1.1743974
1.1742116
1.1740344
1.1738506
1.1736653
1.1734748
1.1732784
1.1730757
1.1728656
1.1726478
1.1724217
1.172187
1.1719436
1.1716912
1.17143
1.1711602
1.1708822
1.1705964
1.1703035
1.1700043
1.1696999
1.1693912
1.1690796
1.1687664
1.168453
1.168141
1.1678319
1.1675275
1.1672294
1.1669395
1.1666593
1.1663907
1.1661353
1.1658947
1.1656704
1.1654637
1.1652759
1.165108
1.1649609
1.1648351
1.1647312
1.1646495
1.1645898
1.1645518
1.164535
1.1645385
1.1645611
1.1646011
1.1646568
1.1647261
1.1648069
1.1648964
1.1649916
1.1650905
1.1651881
1.1652875
1.1653709
1.1654687
1.1655028
1.16562
1.1655273
1.1657547
1.1653919
1.1659039
1.1650214
1.1660927
1.1643407
1.1444584
1.1693654
1.1709105
1.1732957
1.1711539
1.1716689
1.1708276
1.1709961
1.1705993
1.1705939
1.1703757
1.1703094
1.1701668
1.1700759
1.1699594
1.1698542
1.1697416
1.1696295
1.1695136
1.1693939
1.1692696
1.1691401
1.1690047
1.1688629
1.1687144
1.1685588
1.168396
1.1682258
1.1680483
1.1678637
1.1676724
1.1674747
1.1672714
1.1670631
1.1668507
1.1666353
1.1664179
1.1661998
1.1659823
1.1657668
1.1655549
1.1653481
1.1651479
1.1649561
1.1647741
1.1646037
1.1644462
1.1643031
1.1641757
1.164065
1.1639721
1.1638978
1.1638427
1.1638072
1.1637915
1.1637953
1.1638185
1.1638602
1.1639196
1.1639954