/*--------------------------------*- C++ -*----------------------------------*\
| =========                 |                                                 |
| \\      /  F ield         | OpenFOAM: The Open Source CFD Toolbox           |
|  \\    /   O peration     | Version:  2512                                  |
|   \\  /    A nd           | Website:  www.openfoam.com                      |
|    \\/     M anipulation  |                                                 |
\*---------------------------------------------------------------------------*/
FoamFile
{
    version     2.0;
    format      ascii;
    arch        "LSB;label=32;scalar=64";
    class       volScalarField;
    location    "0.148";
    object      T;
}
// * * * * * * * * * * * * * * * * * * * * * * * * * * * * * * * * * * * * * //

dimensions      [0 0 0 1 0 0 0];

internalField   nonuniform List<scalar> 
16000
(
292.62834
284.84282
289.22726
286.94847
288.61325
287.8605
288.52637
288.32679
288.62941
288.64084
288.80579
288.8928
289.01744
289.12799
289.24665
289.36551
289.48766
289.61248
289.74036
289.87141
290.00576
290.14349
290.28465
290.42927
290.57735
290.72884
290.88369
291.04179
291.20301
291.36719
291.53413
291.70361
291.87536
292.04909
292.22449
292.40121
292.57889
292.75713
292.93553
293.11368
293.29116
293.46753
293.64239
293.81532
293.98592
294.15382
294.31867
294.48013
294.63793
294.7918
294.94152
295.08691
295.22783
295.36417
295.49589
295.62294
295.74536
295.8632
295.97656
296.08558
296.19046
296.29144
296.38875
296.48268
296.57356
296.66173
296.74755
296.83142
296.91382
296.99537
297.07676
297.15864
297.24135
297.325
297.40993
297.49508
297.59529
297.65052
297.82007
297.82743
292.31559
284.42587
288.97926
286.565
288.32314
287.50627
288.23043
288.00512
288.3309
288.34421
288.51612
288.61258
288.743
288.86266
288.9889
289.11646
289.24721
289.381
289.51807
289.65855
289.80254
289.95012
290.10131
290.25612
290.41451
290.57642
290.74172
290.9103
291.08198
291.25654
291.43374
291.61331
291.79494
291.97828
292.16297
292.3486
292.53478
292.72107
292.90701
293.09218
293.2761
293.45835
293.63848
293.81607
293.99075
294.16213
294.32988
294.49371
294.65334
294.80857
294.95921
295.10513
295.24622
295.38243
295.51376
295.64021
295.76186
295.87881
295.99118
296.09915
296.20294
296.30282
296.39904
296.4919
296.58176
296.66895
296.75386
296.83688
296.91851
296.99932
297.08005
297.16139
297.24375
297.32716
297.41182
297.49949
297.59006
297.67156
297.79471
297.85652
291.98889
284.04637
288.68246
286.24306
288.02873
287.21467
287.93982
287.7328
288.05569
288.08594
288.26001
288.3687
288.50611
288.63578
288.77121
288.90867
289.04953
289.19374
289.3415
289.49293
289.6481
289.80705
289.96978
290.13626
290.30639
290.48009
290.65717
290.83747
291.02075
291.20674
291.39514
291.5856
291.77776
291.97121
292.16551
292.36022
292.55487
292.74897
292.94203
293.13358
293.32313
293.51022
293.69442
293.87531
294.05251
294.22568
294.39452
294.55878
294.71823
294.87273
295.02214
295.16639
295.30546
295.43934
295.5681
295.6918
295.81057
295.92456
296.03395
296.13894
296.23981
296.33682
296.43027
296.52048
296.60781
296.69261
296.77528
296.85622
296.93589
297.01488
297.09391
297.17368
297.25462
297.33677
297.4204
297.50689
297.59531
297.68301
297.79403
297.86434
291.69678
283.69857
288.43559
285.9563
287.78126
286.95065
287.68844
287.4919
287.81793
287.86325
288.04149
288.16291
288.30841
288.44902
288.59466
288.74301
288.89494
289.05051
289.20985
289.37308
289.54023
289.71129
289.88624
290.06499
290.24741
290.43336
290.62261
290.81492
291.00999
291.20749
291.40704
291.60823
291.81061
292.01371
292.21703
292.42006
292.62226
292.82312
293.0221
293.21869
293.4124
293.60277
293.78936
293.97178
294.1497
294.32281
294.49086
294.65365
294.81105
294.96296
295.10933
295.25016
295.3855
295.51541
295.64003
295.75949
295.87397
295.98368
296.08883
296.18968
296.28652
296.37964
296.46937
296.55605
296.64002
296.72167
296.80139
296.87958
296.9567
297.03332
297.11012
297.18785
297.26695
297.34751
297.4298
297.51469
297.60158
297.69213
297.79056
297.87611
291.42793
283.38534
288.20323
285.69751
287.57869
286.72921
287.47073
287.29353
287.61857
287.68319
287.86566
288.00149
288.15658
288.30932
288.46658
288.62705
288.79129
288.95939
289.13149
289.30764
289.48784
289.67208
289.86026
290.05227
290.2479
290.44694
290.64911
290.85406
291.06144
291.27082
291.48173
291.69367
291.90612
292.11853
292.33031
292.54089
292.74968
292.95612
293.15965
293.35975
293.55592
293.74772
293.93475
294.11665
294.29314
294.46399
294.62902
294.78812
294.94124
295.08836
295.22954
295.36485
295.49442
295.61841
295.73701
295.85044
295.95893
296.06273
296.16212
296.25739
296.34884
296.43681
296.52162
296.60364
296.68321
296.76073
296.83659
296.91119
296.98495
297.05844
297.13232
297.20731
297.28391
297.36224
297.44244
297.52504
297.6106
297.70065
297.79338
297.88314
291.1891
283.1169
288.00551
285.48384
287.37257
286.555
287.30252
287.14249
287.46742
287.55148
287.7392
287.89013
288.05608
288.22172
288.39159
288.56509
288.74259
288.92423
289.11009
289.30019
289.4945
289.69294
289.89535
290.10153
290.31121
290.52408
290.73976
290.95781
291.17776
291.39908
291.62121
291.84354
292.06547
292.28634
292.50551
292.72234
292.93621
293.14652
293.3527
293.55424
293.75068
293.9416
294.12666
294.3056
294.4782
294.64433
294.80391
294.95694
295.10345
295.24356
295.37739
295.50514
295.62702
295.74327
295.85415
295.95995
296.06095
296.15746
296.24979
296.33826
296.42321
296.50498
296.58391
296.66036
296.7347
296.80731
296.87857
296.94888
297.01866
297.08841
297.15879
297.2305
297.30407
297.37968
297.45728
297.53722
297.62087
297.70934
297.79684
297.89034
290.98205
282.89297
287.84187
285.31745
287.21971
286.43244
287.17064
287.04443
287.36064
287.47144
287.66541
287.83176
288.00971
288.18909
288.37278
288.56057
288.75273
288.94935
289.15045
289.35599
289.56586
289.77989
289.99781
290.21934
290.44408
290.67161
290.90143
291.13297
291.36565
291.59881
291.83177
292.06382
292.29426
292.52236
292.74741
292.96873
293.18566
293.39762
293.60406
293.8045
293.99853
294.18584
294.36617
294.53935
294.70529
294.86398
295.01547
295.15987
295.29734
295.42811
295.55242
295.67056
295.78283
295.88954
295.99104
296.08767
296.17976
296.26766
296.35171
296.43226
296.50966
296.58426
296.65642
296.72647
296.79479
296.86176
296.92774
296.99312
297.0583
297.12374
297.19005
297.25793
297.32797
297.40032
297.47477
297.55164
297.63284
297.71867
297.80199
297.89664
290.8068
282.71375
287.71177
285.18756
287.09533
286.33459
287.07887
286.96711
287.31076
287.44137
287.64325
287.82608
288.01822
288.21324
288.41288
288.61708
288.826
289.03965
289.25797
289.48082
289.70798
289.93917
290.17402
290.41208
290.65283
290.89571
291.14007
291.3852
291.63037
291.8748
292.11767
292.3582
292.59556
292.82898
293.05771
293.28105
293.49836
293.70909
293.91275
294.10895
294.2974
294.47788
294.65029
294.8146
294.97086
295.11922
295.25985
295.39303
295.51903
295.6382
295.7509
295.8575
295.95839
296.05397
296.14462
296.23073
296.31269
296.39087
296.46564
296.53734
296.60634
296.67299
296.73763
296.80061
296.86229
296.92302
296.98316
297.04308
297.10316
297.16381
297.22559
297.28918
297.3552
297.42382
297.49469
297.56814
297.64641
297.72886
297.8079
297.90309
290.65572
282.57551
287.61679
285.09588
287.03002
286.32925
287.05631
286.98818
287.30187
287.4608
287.67483
287.87688
288.08652
288.29995
288.51826
288.74146
288.96959
289.20261
289.44033
289.68251
289.92879
290.17875
290.43185
290.6875
290.94499
291.20359
291.46248
291.72079
291.97763
292.23209
292.48325
292.73021
292.97211
293.20812
293.43751
293.6596
293.87383
294.07973
294.27693
294.46519
294.64436
294.81441
294.97541
295.1275
295.27093
295.40598
295.53301
295.65242
295.76463
295.87009
295.96926
296.0626
296.15057
296.23361
296.31217
296.38667
296.4575
296.52507
296.58973
296.65185
296.71179
296.76987
296.82645
296.88184
296.93638
296.99041
297.04427
297.09831
297.15287
297.20833
297.26518
297.32408
297.38568
297.45014
297.51702
297.58675
297.6616
297.73992
297.81476
297.90974
290.52825
282.48004
287.56171
285.06517
287.01427
286.31747
287.04244
287.02507
287.35374
287.54085
287.77046
287.99369
288.22363
288.45808
288.69773
288.94254
289.19243
289.44722
289.70658
289.9701
290.23724
290.50739
290.77982
291.05371
291.32818
291.60227
291.87496
292.14524
292.41206
292.67437
292.93116
293.1815
293.42449
293.65934
293.88538
294.10203
294.30887
294.50558
294.69201
294.86809
295.03391
295.18964
295.33556
295.47203
295.59947
295.71836
295.82919
295.93251
296.02885
296.11877
296.2028
296.28146
296.35527
296.42471
296.49024
296.55229
296.61129
296.66761
296.72162
296.77367
296.82409
296.87321
296.92134
296.96879
297.01587
297.06288
297.11016
297.15801
297.20676
297.25673
297.30836
297.36226
297.4191
297.47903
297.54161
297.60739
297.67836
297.75186
297.82246
297.91682
290.42737
282.43484
287.54979
285.12645
287.04425
286.42861
287.10481
287.16242
287.47054
287.68823
287.93756
288.1847
288.43825
288.69684
288.96088
289.23021
289.5046
289.78367
290.06689
290.35363
290.64314
290.93453
291.22682
291.51897
291.80983
292.09824
292.38299
292.66288
292.93674
293.20344
293.46194
293.7113
293.9507
294.17947
294.39707
294.60314
294.79748
294.98002
295.15085
295.31019
295.45838
295.59584
295.72309
295.84068
295.94923
296.04938
296.14177
296.22704
296.30584
296.37877
296.44644
296.5094
296.56819
296.62331
296.67521
296.72433
296.77107
296.8158
296.85887
296.90059
296.94129
296.98125
297.02076
297.0601
297.09955
297.13938
297.1799
297.2214
297.26415
297.30845
297.35465
297.40334
297.45513
297.51022
297.56828
297.62997
297.69662
297.76474
297.83109
297.92432
290.35955
282.44967
287.58665
285.21996
287.09894
286.56625
287.24548
287.33728
287.66231
287.91197
288.1857
288.46009
288.74088
289.02707
289.31881
289.61577
289.91747
290.22328
290.5324
290.84392
291.15674
291.4697
291.78151
292.09084
292.3963
292.69649
292.99003
293.2756
293.55195
293.81796
294.07265
294.31519
294.54496
294.7615
294.96458
295.15412
295.33024
295.49321
295.64343
295.78144
295.90784
296.02333
296.12864
296.22452
296.31175
296.3911
296.46331
296.52911
296.58919
296.64421
296.69478
296.74147
296.7848
296.82527
296.86332
296.89935
296.93374
296.96683
296.99893
297.03033
297.06131
297.09213
297.12303
297.15427
297.18608
297.21873
297.25246
297.28755
297.32423
297.36277
297.40346
297.44681
297.49338
297.54338
297.59679
297.65429
297.71626
297.77857
297.84078
297.93238
290.33087
282.53484
287.68441
285.4035
287.22545
286.79256
287.44703
287.60144
287.93826
288.22263
288.52565
288.83125
289.14337
289.46104
289.7841
290.11193
290.44372
290.77849
291.11507
291.45214
291.78826
292.1219
292.45143
292.77523
293.09166
293.39915
293.6962
293.98147
294.25377
294.51211
294.75572
294.98408
295.19688
295.39407
295.5758
295.74241
295.89441
296.03244
296.15727
296.26972
296.37069
296.46109
296.54184
296.61386
296.67802
296.73517
296.78614
296.83167
296.87246
296.90919
296.94243
296.97275
297.00064
297.02655
297.05088
297.07401
297.09626
297.11793
297.1393
297.16061
297.1821
297.20398
297.22647
297.24978
297.27412
297.29969
297.32674
297.35548
297.38615
297.41895
297.45414
297.49214
297.53337
297.57814
297.62682
297.68009
297.73707
297.79319
297.85149
297.9412
290.33885
282.69537
287.84168
285.64512
287.44249
287.09356
287.73683
287.94882
288.30922
288.632
288.96997
289.31168
289.65982
290.01325
290.3714
290.73322
291.09745
291.46263
291.82713
292.18917
292.54686
292.8983
293.24152
293.57465
293.89589
294.20359
294.49632
294.77288
295.03235
295.2741
295.49779
295.70336
295.89104
296.06126
296.21467
296.35208
296.47444
296.58276
296.67813
296.76165
296.83441
296.89751
296.952
296.99886
297.03904
297.07342
297.1028
297.12794
297.14951
297.16813
297.18435
297.19867
297.21153
297.22334
297.23445
297.24516
297.25576
297.2665
297.27759
297.28925
297.30166
297.315
297.32943
297.34514
297.36228
297.38104
297.40162
297.42421
297.449
297.47618
297.50599
297.5387
297.5746
297.61409
297.65801
297.70702
297.75877
297.80853
297.86328
297.9506
290.3902
282.94913
288.0618
285.97965
287.74383
287.48839
288.12272
288.39845
288.78969
289.15585
289.53493
289.91824
290.30742
290.70092
291.09756
291.49573
291.89356
292.28902
292.67989
293.0639
293.43872
293.80206
294.15173
294.48575
294.80234
295.10006
295.37779
295.63479
295.87068
296.08544
296.27938
296.4531
296.60742
296.74339
296.86216
296.96501
297.05326
297.12823
297.19127
297.24366
297.28663
297.32135
297.34892
297.37034
297.38654
297.39836
297.40658
297.41187
297.41486
297.41609
297.41605
297.41516
297.4138
297.4123
297.41095
297.41001
297.40968
297.41017
297.41165
297.41426
297.41817
297.42349
297.43036
297.43891
297.44926
297.46157
297.476
297.4927
297.51186
297.53364
297.55824
297.58582
297.6165
297.65078
297.68994
297.73461
297.78104
297.8246
297.87623
297.96003
290.48917
283.31679
288.33018
286.41066
288.12229
287.98695
288.62163
288.96473
289.39732
289.81344
290.24057
290.67144
291.10652
291.54369
291.98098
292.41604
292.84628
293.26899
293.68134
294.08056
294.46395
294.82906
295.17372
295.49616
295.79504
296.06949
296.31909
296.54391
296.7444
296.92136
297.07588
297.2093
297.32308
297.4188
297.49809
297.56257
297.61384
297.65342
297.68279
297.70329
297.7162
297.72267
297.72375
297.72041
297.71348
297.70375
297.69187
297.67846
297.66402
297.64903
297.63387
297.6189
297.60441
297.59066
297.57786
297.56621
297.55586
297.54695
297.53961
297.53393
297.53002
297.52797
297.52786
297.52979
297.53385
297.54016
297.54883
297.56001
297.57384
297.59049
297.61013
297.6328
297.65849
297.68775
297.72219
297.76228
297.80339
297.84125
297.89011
297.96928
290.63946
283.80875
288.66523
286.95286
288.61202
288.60763
289.25429
289.67161
290.15639
290.63
291.11195
291.59555
292.08002
292.56239
293.03973
293.50879
293.96614
294.40835
294.83208
295.23427
295.61224
295.9638
296.28734
296.58184
296.84691
297.08272
297.28994
297.46969
297.62343
297.75286
297.85986
297.94642
298.01452
298.06616
298.10324
298.12761
298.14097
298.1449
298.14087
298.13019
298.11405
298.09352
298.06954
298.04296
298.01451
297.98483
297.95448
297.92394
297.89364
297.86392
297.83509
297.80741
297.78109
297.75631
297.73323
297.71196
297.6926
297.67525
297.65997
297.64683
297.63587
297.62716
297.62073
297.61665
297.61497
297.61578
297.61916
297.62522
297.63409
297.64594
297.66089
297.67892
297.69993
297.72454
297.75433
297.78947
297.82514
297.85811
297.90437
297.97819
290.84571
284.38352
289.09722
287.62951
289.23471
289.37804
290.05119
290.5495
291.09705
291.63508
292.17716
292.71653
293.25085
293.776
294.28787
294.78215
295.25467
295.70156
296.11944
296.50563
296.85815
297.17588
297.45845
297.70625
297.9203
298.10214
298.25374
298.37732
298.4753
298.55015
298.60437
298.64036
298.66045
298.66679
298.6614
298.64611
298.62258
298.59232
298.55665
298.51676
298.47369
298.42834
298.38151
298.33388
298.28603
298.23848
298.19164
298.14589
298.10152
298.05878
298.01789
297.97901
297.94228
297.9078
297.87567
297.84594
297.81866
297.79387
297.77159
297.75185
297.73466
297.72003
297.70797
297.69852
297.69169
297.68754
297.68613
297.68752
297.69184
297.69924
297.70981
297.72347
297.74017
297.76057
297.78595
297.81581
297.84573
297.87458
297.91872
297.98631
291.12486
285.11095
289.70668
288.47845
290.02799
290.33222
291.04825
291.63378
292.25308
292.8609
293.46552
294.05941
294.63823
295.19644
295.72875
296.23022
296.69656
297.12439
297.51138
297.85624
298.15874
298.41963
298.64044
298.82335
298.971
299.08633
299.17246
299.23252
299.26959
299.28662
299.28639
299.27147
299.2442
299.20669
299.16084
299.10833
299.05063
298.98904
298.92468
298.85854
298.79144
298.7241
298.65713
298.59104
298.52627
298.46317
298.40205
298.34313
298.28662
298.23266
298.18138
298.13286
298.08717
298.04435
298.00442
297.9674
297.93328
297.90206
297.87372
297.84824
297.82561
297.80581
297.78883
297.77465
297.76328
297.75473
297.74902
297.74622
297.74643
297.74975
297.75625
297.76583
297.77857
297.79519
297.81649
297.84113
297.86517
297.89013
297.93246
297.99497
291.51015
286.0161
290.47258
289.53785
291.03259
291.50707
292.28556
292.96495
293.66255
294.34139
295.00426
295.64227
296.24913
296.81832
297.3444
297.82311
298.25161
298.62855
298.95399
299.22921
299.45654
299.63905
299.78037
299.88438
299.95513
299.99658
300.01258
300.00671
299.9823
299.94239
299.88969
299.82662
299.7553
299.67761
299.59517
299.50936
299.42141
299.33232
299.24298
299.15411
299.06633
298.98016
298.89602
298.81426
298.73514
298.65891
298.58572
298.51571
298.44897
298.38557
298.32554
298.2689
298.21566
298.1658
298.11929
298.07609
298.03617
297.99948
297.96598
297.9356
297.90832
297.88407
297.86282
297.84454
297.82921
297.8168
297.80731
297.80079
297.79732
297.79696
297.79971
297.80553
297.81463
297.82779
297.84533
297.86516
297.88383
297.90513
297.94557
298.00391
292.04367
287.16509
291.40717
290.84492
292.29964
292.95266
293.81386
294.5912
295.36536
296.10467
296.80665
297.46158
298.06278
298.60477
299.08419
299.49969
299.85185
300.14287
300.37624
300.55637
300.68821
300.777
300.82796
300.84614
300.83633
300.80289
300.74981
300.68063
300.59849
300.50611
300.40587
300.29982
300.1897
300.07701
299.963
299.84873
299.73509
299.62281
299.5125
299.40466
299.29969
299.1979
299.09956
299.00485
298.91392
298.82687
298.74376
298.66462
298.58946
298.51828
298.45105
298.38772
298.32823
298.27254
298.22056
298.17223
298.12747
298.08621
298.04836
298.01386
297.98263
297.9546
297.92972
297.90793
297.88917
297.87342
297.86065
297.85087
297.84414
297.84048
297.83985
297.84224
297.84802
297.85791
297.87184
297.88735
297.90167
297.9201
297.95837
298.01103
292.7636
288.61676
292.6215
292.4679
293.90526
294.73837
295.69119
296.55621
297.38494
298.15097
298.84917
299.47176
300.01509
300.47795
300.86188
301.17054
301.40922
301.58426
301.70254
301.77109
301.79674
301.78594
301.74462
301.6781
301.5911
301.48776
301.37164
301.2458
301.11284
300.97498
300.83407
300.69164
300.54901
300.40722
300.26715
300.12953
299.99492
299.86379
299.7365
299.61334
299.49451
299.38016
299.27041
299.16531
299.06489
298.96914
298.87805
298.79157
298.70964
298.63219
298.55912
298.49036
298.42581
298.36536
298.30892
298.25638
298.20763
298.16259
298.12114
298.08319
298.04866
298.01746
297.9895
297.96472
297.94305
297.92443
297.90882
297.89623
297.88665
297.88007
297.87641
297.87576
297.87854
297.88533
297.89568
297.90717
297.91807
297.93451
297.97004
298.0157
293.67548
290.48545
294.1985
294.49631
295.93402
296.93143
297.95453
298.86609
299.69499
300.42344
301.04969
301.5725
301.99537
302.32428
302.56732
302.7337
302.83309
302.875
302.86844
302.82163
302.74194
302.63582
302.50884
302.36576
302.21058
302.0467
301.8769
301.70353
301.52849
301.35335
301.17941
301.00769
300.83903
300.67408
300.51338
300.35733
300.20623
300.0603
299.91971
299.78455
299.65488
299.53072
299.41203
299.29879
299.19093
299.08837
298.991
298.89873
298.81144
298.72901
298.65131
298.57822
298.50961
298.44534
298.38529
298.32933
298.27734
298.22919
298.18478
298.14399
298.10671
298.07285
298.0423
298.015
297.99084
297.96978
297.95175
297.93672
297.92468
297.91554
297.90925
297.90593
297.906
297.90986
297.91675
297.92447
297.93246
297.94722
297.97946
298.01786
294.8994
292.89091
296.24996
297.00025
298.41999
299.55444
300.57845
301.4513
302.19091
302.79293
303.26593
303.61928
303.86573
304.01885
304.09242
304.09949
304.052
303.96051
303.83417
303.68073
303.50671
303.31753
303.11762
302.91064
302.69952
302.48667
302.27399
302.06303
301.85501
301.65087
301.45139
301.25712
301.06852
300.88589
300.70946
300.53938
300.37574
300.21857
300.06787
299.92359
299.78566
299.654
299.52849
299.40902
299.29544
299.18761
299.08539
298.98862
298.89716
298.81083
298.72948
298.65297
298.58112
298.5138
298.45086
298.39214
298.33751
298.28684
298.23999
298.19685
298.15728
298.12119
298.08848
298.05903
298.03276
298.00961
297.98949
297.97238
297.9582
297.94685
297.93829
297.93266
297.93034
297.93147
297.9351
297.93941
297.94475
297.95763
297.98643
298.01873
296.46922
295.9351
298.79962
299.99683
301.47011
302.52578
303.43447
304.14611
304.68903
305.07441
305.32399
305.45795
305.49657
305.45808
305.35851
305.21148
305.02834
304.81837
304.5891
304.34656
304.09557
303.83994
303.58268
303.32613
303.07213
302.82211
302.57715
302.33808
302.10552
301.87991
301.66157
301.4507
301.24743
301.0518
300.86382
300.68344
300.51057
300.34511
300.18693
300.03589
299.89183
299.75457
299.62394
299.49976
299.38185
299.27002
299.16409
299.06386
298.96915
298.87979
298.79558
298.71636
298.64196
298.5722
298.50692
298.44597
298.38919
298.33644
298.28759
298.24249
298.20101
298.16305
298.12849
298.09721
298.06914
298.04417
298.02226
298.00332
297.98727
297.97401
297.96351
297.95592
297.95149
297.95015
297.9509
297.95239
297.95561
297.96646
297.99079
298.01579
298.43484
299.62809
302.25884
303.5154
304.74334
305.62167
306.28151
306.71457
306.96997
307.0772
307.06849
306.96989
306.80348
306.58695
306.33434
306.05664
305.76239
305.45812
305.14887
304.83845
304.52977
304.22501
303.9258
303.63334
303.3485
303.0719
302.80396
302.54496
302.29503
302.05424
301.82259
301.59999
301.38634
301.18149
300.9853
300.79755
300.61808
300.44665
300.28306
300.12709
299.97852
299.83713
299.70269
299.57499
299.45381
299.33892
299.23013
299.12721
299.02997
298.93821
298.85173
298.77034
298.69386
298.62211
298.55492
298.49212
298.43356
298.37908
298.32852
298.28176
298.23866
298.19909
298.16293
298.13008
298.10042
298.07387
298.05036
298.02979
298.01209
297.99716
297.98498
297.97567
297.96937
297.96586
297.96425
297.96367
297.96538
297.97407
297.99344
298.01236
301.11873
304.02663
305.99193
307.14668
308.05311
308.56453
308.83874
308.91049
308.83828
308.66012
308.40756
308.10371
307.76597
307.40709
307.03644
306.66086
306.28531
305.91336
305.54758
305.18977
304.84122
304.50276
304.17494
303.85809
303.55237
303.25781
302.97434
302.70185
302.44016
302.18905
301.9483
301.71765
301.49683
301.28558
301.08362
300.89067
300.70646
300.53072
300.36317
300.20356
300.05161
299.90708
299.76972
299.63927
299.51549
299.39817
299.28706
299.18194
299.0826
298.98883
298.90042
298.81718
298.73892
298.66544
298.59658
298.53216
298.47202
298.41599
298.36393
298.31569
298.27113
298.23012
298.19253
298.15825
298.12717
298.09919
298.07423
298.05219
298.03299
298.01654
298.00284
297.99196
297.98393
297.97849
297.97499
297.97301
297.97372
297.98034
297.99459
298.00798
304.85432
308.68831
309.91843
310.59946
310.94727
310.97949
310.82767
310.54637
310.18439
309.77214
309.33124
308.87618
308.41684
307.95988
307.50977
307.0695
306.64098
306.22542
305.82352
305.43564
305.06187
304.70215
304.35631
304.02408
303.70516
303.39918
303.1058
302.82463
302.5553
302.29742
302.05063
301.81456
301.58884
301.37314
301.1671
300.9704
300.78272
300.60375
300.43318
300.27073
300.11611
299.96904
299.82925
299.6965
299.57052
299.45107
299.33792
299.23084
299.12961
299.034
298.94382
298.85886
298.77892
298.70382
298.63338
298.56742
298.50577
298.44827
298.39477
298.34512
298.29918
298.25681
298.21788
298.18227
298.14987
298.12058
298.0943
298.07093
298.05038
298.03258
298.0175
298.00516
297.99553
297.98837
297.98329
297.98017
297.97986
297.98418
297.99374
298.00332
310.42279
312.84381
313.27926
313.24065
313.01763
312.60729
312.11129
311.56782
311.00503
310.43885
309.87911
309.33165
308.7999
308.28573
307.79008
307.31326
306.85519
306.41557
305.99394
305.58975
305.20242
304.83133
304.47589
304.1355
303.80956
303.49754
303.19887
302.91306
302.6396
302.37803
302.1279
301.88878
301.66026
301.44196
301.23349
301.0345
300.84465
300.66361
300.49105
300.32668
300.1702
300.02133
299.87979
299.74533
299.61767
299.49659
299.38183
299.27317
299.17038
299.07325
298.98157
298.89513
298.81374
298.73722
298.66537
298.59803
298.53502
298.47619
298.42137
298.37043
298.32321
298.27958
298.23941
298.20257
298.16897
298.13848
298.111
298.08644
298.0647
298.04571
298.02943
298.01583
298.00482
297.99625
297.9899
297.9858
297.98445
297.98669
297.99259
297.99952
314.02835
315.02198
315.17357
314.67066
314.0492
313.37476
312.68778
312.00882
311.34748
310.70898
310.09544
309.50756
308.94517
308.40762
307.89401
307.40336
306.93459
306.48669
306.05864
305.64948
305.25831
304.88425
304.52652
304.18436
303.85707
303.544
303.24452
302.95807
302.68409
302.4221
302.17159
301.93213
301.70328
301.48464
301.27582
301.07645
300.88619
300.7047
300.53166
300.36677
300.20972
300.06023
299.91803
299.78286
299.65447
299.5326
299.41702
299.3075
299.20382
299.10577
299.01313
298.92571
298.84332
298.76576
298.69287
298.62445
298.56036
298.50042
298.44448
298.39241
298.34405
298.29927
298.25795
298.21996
298.18519
298.15354
298.1249
298.09918
298.07629
298.05617
298.03876
298.02402
298.01187
298.00216
297.99479
297.98976
297.98742
297.98822
297.99201
297.9974
310.55029
308.82278
305.5676
302.75511
301.76318
301.78072
301.44265
301.22376
301.04831
300.89746
300.76721
300.64058
300.52745
300.42345
300.32307
300.22283
300.124
300.02639
299.9297
299.83376
299.73847
299.64376
299.54961
299.45603
299.36302
299.27063
299.1789
299.0879
298.99768
298.90833
298.81991
298.73252
298.64623
298.56115
298.47736
298.39496
298.31407
298.23477
298.15719
298.08144
298.00764
297.9359
297.86635
297.79911
297.73432
297.67211
297.6126
297.55594
297.50226
297.45168
297.40435
297.36039
297.31992
297.28305
297.24991
297.2206
297.19521
297.1738
297.15643
297.14313
297.13399
297.12906
297.12839
297.13203
297.1401
297.15264
297.16987
297.19148
297.21832
297.24873
297.28679
297.32522
297.37918
297.42143
297.49889
297.53207
297.64852
297.66681
297.81783
297.85473
306.73238
304.58917
300.54258
299.32285
299.31014
299.4254
299.58532
299.63794
299.67706
299.71058
299.7336
299.73336
299.71735
299.68848
299.65198
299.6095
299.56166
299.50893
299.45194
299.39131
299.32753
299.26104
299.19223
299.12147
299.04906
298.97533
298.90053
298.82493
298.74877
298.67229
298.59568
298.51918
298.44296
298.36721
298.29212
298.21786
298.14461
298.07252
298.00177
297.93252
297.86492
297.79913
297.73532
297.67363
297.61422
297.55724
297.50285
297.4512
297.40244
297.3567
297.31412
297.27485
297.23899
297.20669
297.17804
297.15314
297.13209
297.11493
297.10172
297.09247
297.08728
297.08618
297.0892
297.0964
297.10787
297.12366
297.14394
297.16848
297.19794
297.23101
297.27115
297.31221
297.36741
297.41236
297.48991
297.52641
297.64241
297.66205
297.8175
297.84746
307.26742
303.14883
300.06878
298.90154
298.93079
299.04611
299.17099
299.19317
299.22703
299.2266
299.22777
299.21731
299.20568
299.18789
299.1659
299.13875
299.10722
299.07148
299.03186
298.98867
298.94217
298.89266
298.84039
298.78565
298.7287
298.66981
298.60923
298.54722
298.48403
298.41988
298.35502
298.28966
298.22403
298.15835
298.09282
298.02764
297.96302
297.89916
297.83626
297.77449
297.71406
297.65515
297.59795
297.54262
297.48936
297.43833
297.38971
297.34367
297.30036
297.25994
297.22257
297.18837
297.15748
297.13003
297.10612
297.08587
297.06933
297.05659
297.04765
297.04255
297.04136
297.04413
297.05086
297.0616
297.07645
297.09545
297.11874
297.14612
297.1782
297.21378
297.25607
297.29946
297.3562
297.40322
297.48168
297.52048
297.63725
297.6575
297.81652
297.84149
306.18623
301.02042
299.05645
298.17181
298.42156
298.47982
298.60545
298.6157
298.66424
298.67743
298.69923
298.70359
298.70545
298.69905
298.68869
298.67353
298.65444
298.63142
298.60479
298.57484
298.54177
298.50582
298.46719
298.4261
298.38273
298.3373
298.29
298.24103
298.19058
298.13886
298.08608
298.03243
297.97812
297.92337
297.86836
297.81333
297.75847
297.70399
297.65011
297.59702
297.54495
297.49408
297.44462
297.39677
297.35073
297.30668
297.26483
297.22534
297.1884
297.15417
297.12281
297.09446
297.06927
297.04736
297.02884
297.01382
297.00237
296.99454
296.99035
296.98983
296.99305
297.00004
297.0108
297.02539
297.04388
297.06632
297.09282
297.12322
297.15805
297.19626
297.24085
297.2866
297.34502
297.39406
297.47356
297.51452
297.63205
297.65302
297.81534
297.83592
305.15985
299.91491
298.49254
297.76306
298.11767
298.10245
298.23507
298.21722
298.26506
298.262
298.27698
298.27353
298.27313
298.26623
298.25782
298.24605
298.23183
298.21497
298.19565
298.17399
298.15003
298.12387
298.09559
298.06527
298.03301
297.9989
297.96307
297.92563
297.88672
297.84648
297.80507
297.76264
297.71936
297.67542
297.63099
297.58627
297.54145
297.49673
297.45232
297.40843
297.36526
297.32302
297.28192
297.24217
297.20397
297.16754
297.13306
297.10073
297.07074
297.04326
297.01844
296.99645
296.97743
296.96151
296.9488
296.9394
296.93338
296.93079
296.93165
296.93598
296.94383
296.95524
296.97022
296.9888
297.01106
297.03703
297.06684
297.10031
297.13797
297.17882
297.22575
297.27383
297.33405
297.38496
297.46574
297.50855
297.62713
297.64869
297.81402
297.83077
304.64825
298.83971
297.86459
297.21837
297.66751
297.58803
297.74867
297.7175
297.78082
297.77851
297.80373
297.80591
297.81344
297.81342
297.81257
297.80844
297.80223
297.79366
297.78295
297.77019
297.75544
297.73877
297.72025
297.69993
297.6779
297.65421
297.62895
297.60219
297.57405
297.54461
297.51399
297.48232
297.44973
297.41636
297.38238
297.34796
297.31326
297.27847
297.24377
297.20938
297.17549
297.1423
297.11002
297.07886
297.04902
297.02073
296.99417
296.96954
296.94704
296.92682
296.90907
296.89394
296.88156
296.87208
296.86561
296.86223
296.86203
296.86503
296.87125
296.88071
296.89346
296.90953
296.92892
296.95167
296.97785
297.0075
297.04071
297.07735
297.11789
297.16145
297.21077
297.26117
297.32325
297.37605
297.45813
297.50264
297.62234
297.64454
297.8126
297.82602
304.17348
297.68847
297.2898
296.68438
297.2106
297.08334
297.27665
297.23404
297.31385
297.31133
297.3451
297.35146
297.36587
297.37208
297.37812
297.38089
297.38181
297.38062
297.37757
297.37271
297.36613
297.3579
297.34808
297.33671
297.32386
297.30956
297.29387
297.27685
297.25856
297.23909
297.21851
297.19693
297.17444
297.15118
297.12726
297.10282
297.07803
297.05305
297.02804
297.00319
296.97868
296.95471
296.93147
296.90917
296.88802
296.8682
296.84993
296.83338
296.81874
296.8062
296.7959
296.78801
296.78266
296.77999
296.7801
296.78308
296.78899
296.79786
296.8097
296.82452