/*--------------------------------*- C++ -*----------------------------------*\
| =========                 |                                                 |
| \\      /  F ield         | OpenFOAM: The Open Source CFD Toolbox           |
|  \\    /   O peration     | Version:  2512                                  |
|   \\  /    A nd           | Website:  www.openfoam.com                      |
|    \\/     M anipulation  |                                                 |
\*---------------------------------------------------------------------------*/
FoamFile
{
    version     2.0;
    format      ascii;
    arch        "LSB;label=32;scalar=64";
    class       volVectorField;
    location    "0.148";
    object      U;
}
// * * * * * * * * * * * * * * * * * * * * * * * * * * * * * * * * * * * * * //

dimensions      [0 1 -1 0 0 0 0];

internalField   nonuniform List<vector> 
16000
(
(214.75894 -3.1194531e-17 -8.3364089)
(251.88846 0 5.3473543)
(238.26548 0 -7.5371761)
(246.00142 4.9555718e-17 3.7632593)
(241.40563 -4.9007039e-17 -5.92643)
(243.66246 0 1.7361287)
(241.91001 0 -4.3102653)
(242.44942 8.3850553e-17 -0.039382938)
(241.64028 -7.9691832e-17 -3.153682)
(241.54223 0 -1.2740333)
(241.04885 7.2010765e-17 -2.5660203)
(240.71967 -2.0515792e-16 -1.9890982)
(240.29197 1.2985924e-16 -2.4270807)
(239.87742 -1.2352839e-16 -2.3650118)
(239.43323 1.1720709e-16 -2.5264132)
(238.97385 -3.4769271e-18 -2.5986633)
(238.49468 -3.3029891e-18 -2.7024518)
(237.99677 -9.7465186e-17 -2.7954902)
(237.47966 1.909567e-16 -2.8903067)
(236.9433 -9.0602024e-17 -2.9829229)
(236.38762 1.7233856e-16 -3.0737263)
(235.81258 -1.6336248e-16 -3.1620183)
(235.21825 0 -3.2472972)
(234.60476 1.5206549e-16 -3.3289768)
(233.97233 -4.1150249e-18 -3.4064604)
(233.32129 -2.6540045e-16 -3.4791179)
(232.65206 1.2578994e-16 -3.5463112)
(231.96521 0 -3.6073872)
(231.26141 0 -3.6616947)
(230.54146 2.1845521e-16 -3.7085893)
(229.80633 -2.0353972e-16 -3.7474464)
(229.05708 0 -3.7776703)
(228.29494 0 -3.7987048)
(227.52126 0 -3.8100478)
(226.73753 5.135189e-18 -3.8112615)
(225.94535 1.5583814e-16 -3.8019845)
(225.14644 -1.4265496e-16 -3.7819436)
(224.34262 -1.3972119e-16 -3.7509627)
(223.53578 1.2371296e-16 -3.7089726)
(222.72787 0 -3.6560189)
(221.92089 -1.1840593e-16 -3.5922641)
(221.11684 1.1176103e-16 -3.5179924)
(220.31773 -2.1181071e-16 -3.4336071)
(219.52553 1.9983671e-16 -3.339628)
(218.74215 -1.9517286e-16 -3.2366847)
(217.96941 3.5733046e-16 -3.1255059)
(217.20904 5.6000261e-18 -3.0069085)
(216.46265 2.9831413e-19 -2.8817822)
(215.73171 -1.5040712e-16 -2.7510734)
(215.01753 1.4225392e-16 -2.6157678)
(214.32126 -1.2565409e-16 -2.4768721)
(213.64388 0 -2.3353955)
(212.9862 7.4684401e-18 -2.192333)
(212.34883 0 -2.0486468)
(211.73222 6.6461034e-18 -1.9052522)
(211.13661 2.0694651e-16 -1.7630048)
(210.56205 -3.7825101e-16 -1.6226885)
(210.00843 1.0921635e-17 -1.4850059)
(209.47545 1.6808641e-16 -1.3505683)
(208.96259 -1.4878302e-16 -1.2199031)
(208.46915 1.4014602e-16 -1.0934304)
(207.99435 -8.8188945e-18 -0.97150854)
(207.53728 0 -0.85440075)
(207.09681 0 -0.74227466)
(206.67152 -1.1113989e-16 -0.63523028)
(206.25968 1.118201e-16 -0.53330102)
(205.85922 -9.908594e-17 -0.43646989)
(205.46794 1.934144e-16 -0.34467745)
(205.08361 -1.8876062e-16 -0.25782403)
(204.7041 8.3682456e-17 -0.17576688)
(204.32716 5.2844928e-18 -0.098332708)
(203.95012 0 -0.0253971)
(203.57002 4.7514e-18 0.043108408)
(203.18459 -4.5133605e-18 0.10746789)
(202.79313 0 0.16802359)
(202.39744 -3.3754053e-17 0.2213877)
(201.96593 6.2474734e-17 0.26639177)
(201.65655 -3.1747024e-17 0.37324852)
(200.9474 0 0.18172779)
(200.99398 0 0.84656762)
(216.051 0 -11.147221)
(253.50384 -3.7088638e-18 3.3065361)
(239.2051 -1.1964642e-16 -10.461241)
(247.44193 1.1010316e-16 1.6761145)
(242.49506 0 -8.7883592)
(244.98111 1.0140032e-16 -0.42286847)
(243.02614 -1.8741307e-16 -7.055308)
(243.65231 -1.0213174e-19 -2.3213413)
(242.75277 8.4458605e-17 -5.7441408)
(242.65494 0 -3.6732163)
(242.12072 -1.5256712e-16 -5.042627)
(241.76234 1.4923869e-16 -4.4333774)
(241.30241 1.4194801e-16 -4.8580461)
(240.85325 -2.6131111e-16 -4.7968687)
(240.37429 1.201288e-16 -4.9384986)
(239.87827 1.1044315e-17 -5.003708)
(239.36146 1.1548989e-16 -5.0922604)
(238.8246 -1.0285749e-16 -5.1719257)
(238.26739 0 -5.2510565)
(237.68983 0 -5.3269482)
(237.0919 5.6760542e-18 -5.3994793)
(236.47369 -1.7805974e-16 -5.4679383)
(235.83536 3.376345e-16 -5.5316873)
(235.17717 -3.1549434e-16 -5.5900389)
(234.49949 1.4259988e-16 -5.6422898)
(233.80281 0 -5.6877212)
(233.08774 1.2437343e-16 -5.7256041)
(232.35503 -1.3336489e-16 -5.7552141)
(231.60557 0 -5.7758381)
(230.84037 3.5246837e-18 -5.7867861)
(230.06064 -1.3368537e-17 -5.7874023)
(229.26768 0 -5.7770808)
(228.46297 0 -5.7552737)
(227.64812 -1.7058195e-16 -5.7215119)
(226.82486 3.3871658e-16 -5.6754131)
(225.99504 -1.6264799e-16 -5.616697)
(225.16062 -1.5905488e-16 -5.5451988)
(224.32362 1.4557526e-16 -5.4608758)
(223.48612 -1.1212703e-16 -5.3638188)
(222.65026 -2.8714948e-19 -5.2542566)
(221.81816 -2.6860263e-19 -5.1325587)
(220.99192 2.3273561e-16 -4.9992344)
(220.1736 -1.0980781e-16 -4.8549288)
(219.3652 0 -4.7004147)
(218.56859 2.0233297e-16 -4.5365823)
(217.78554 1.1936409e-17 -4.3644246)
(217.01768 -5.115377e-18 -4.1850202)
(216.26646 -1.6450618e-16 -3.9995148)
(215.53318 0 -3.8091005)
(214.81895 -1.4653184e-16 -3.614995)
(214.12472 -8.8580957e-18 -3.4184204)
(213.45121 2.6007517e-16 -3.2205819)
(212.79898 -1.3007061e-16 -3.0226488)
(212.16842 0 -2.8257365)
(211.55971 -2.0380588e-17 -2.6308903)
(210.97287 -2.1118688e-16 -2.4390739)
(210.40773 3.6123999e-16 -2.2511569)
(209.86396 -2.152563e-16 -2.0679077)
(209.34107 0 -1.8899844)
(208.8384 -1.7078623e-16 -1.7179431)
(208.35509 1.7947186e-16 -1.5522156)
(207.8902 2.6684587e-17 -1.3931466)
(207.44275 0 -1.2409873)
(207.01153 -1.4188435e-16 -1.0958724)
(206.5951 7.3204806e-18 -0.95785998)
(206.1917 1.1170534e-16 -0.82693465)
(205.79927 -1.9736328e-17 -0.70302436)
(205.41552 9.2999573e-17 -0.58601154)
(205.03818 -1.0512257e-16 -0.47573537)
(204.66503 5.5085685e-18 -0.37199022)
(204.29383 -5.1977482e-18 -0.27454706)
(203.92191 0 -0.1832344)
(203.54629 -4.6378511e-18 -0.09788285)
(203.16466 4.3867841e-18 -0.018031657)
(202.77578 8.3084201e-18 0.055871569)
(202.37686 9.8448956e-19 0.12043443)
(201.97229 0 0.18852716)
(201.58863 3.0229475e-17 0.26700143)
(201.02725 -5.7569701e-17 0.15198674)
(200.89497 2.5860203e-17 0.73275316)
(217.20308 0 -14.030262)
(254.96506 -1.219913e-16 1.0655453)
(240.16163 2.4968979e-16 -13.469478)
(248.67291 -2.2258435e-16 -0.57670723)
(243.47165 1.1013925e-16 -11.723702)
(246.09329 -3.2581968e-18 -2.7714709)
(244.01128 9.9255895e-17 -9.8480563)
(244.66268 -9.3971106e-17 -4.7990174)
(243.70626 -5.5804958e-18 -8.4000248)
(243.5851 -5.2981953e-18 -6.2377198)
(243.01528 -1.0065949e-17 -7.6190308)
(242.62067 1.38873e-16 -7.0151599)
(242.12502 -1.4077372e-16 -7.4092076)
(241.63706 1.3816489e-16 -7.3551275)
(241.11871 -1.1869364e-16 -7.4757423)
(240.58163 -1.5556874e-17 -7.5331359)
(240.0225 0 -7.6063227)
(239.44204 -1.1936728e-20 -7.6713614)
(238.84006 -2.2627771e-16 -7.733619)
(238.21665 -3.6770692e-19 -7.7910663)
(237.5719 1.7343639e-16 -7.8432696)
(236.90604 1.7036581e-17 -7.8894366)
(236.21936 -2.1548813e-17 -7.9288124)
(235.5123 0 -7.9606067)
(234.7854 6.6976776e-21 -7.9840206)
(234.03934 -1.654203e-16 -7.9982481)
(233.27496 1.4778254e-16 -8.0024878)
(232.49324 8.2479136e-18 -7.9959507)
(231.69531 0 -7.9778789)
(230.88249 -7.3994449e-18 -7.9475527)
(230.05624 -2.1986545e-21 -7.904311)
(229.21817 -1.9918699e-16 -7.8475646)
(228.37006 2.0060433e-16 -7.7768114)
(227.51382 1.1888277e-17 -7.691657)
(226.65146 -1.799545e-16 -7.5918235)
(225.78513 1.485145e-16 -7.4771686)
(224.91703 -1.8096833e-16 -7.3476947)
(224.04942 1.5168176e-16 -7.2035596)
(223.18459 -1.4361981e-16 -7.0450799)
(222.32483 1.3535495e-16 -6.872737)
(221.47237 1.600503e-17 -6.687174)
(220.62938 0 -6.4891885)
(219.79795 1.9964456e-16 -6.2797255)
(218.98002 -2.4165038e-16 -6.0598623)
(218.1774 0 -5.8307916)
(217.39172 1.7935449e-16 -5.5938031)
(216.62441 -1.5738707e-16 -5.3502588)
(215.87674 1.6981596e-16 -5.1015711)
(215.14974 -1.7962034e-16 -4.8491772)
(214.44426 0 -4.5945159)
(213.76093 1.7712325e-16 -4.3390043)
(213.10019 -1.3311464e-16 -4.0840139)
(212.46229 0 -3.8308525)
(211.84729 0 -3.5807467)
(211.25511 1.2472711e-16 -3.3348258)
(210.68546 -2.0830333e-16 -3.094113)
(210.13792 1.2227893e-16 -2.8595145)
(209.61192 1.8402714e-16 -2.6318156)
(209.10676 1.9885486e-19 -2.4116735)
(208.62158 1.7696042e-19 -2.199626)
(208.15538 -3.2392543e-16 -1.9960802)
(207.70707 8.9396738e-17 -1.8013302)
(207.27554 0 -1.6155821)
(206.85951 1.4208632e-16 -1.4389137)
(206.45751 -1.6298768e-16 -1.2713171)
(206.06777 1.1140337e-16 -1.1127081)
(205.68822 1.3149539e-17 -0.96294258)
(205.31657 -8.5963346e-17 -0.82183249)
(204.95048 1.1543986e-17 -0.68915017)
(204.58773 2.1709812e-17 -0.5646302)
(204.22606 -1.020945e-16 -0.4479915)
(203.86289 9.6019707e-17 -0.33899521)
(203.4953 -7.2347959e-17 -0.23736853)
(203.12078 1.3628086e-16 -0.14274308)
(202.73749 -5.6197147e-17 -0.056029598)
(202.34447 -6.0634219e-17 0.021833104)
(201.94951 5.0097214e-17 0.10329287)
(201.53991 0 0.16773796)
(201.05148 3.2059869e-18 0.12218057)
(200.82329 -1.2159298e-17 0.61354124)
(218.1903 0 -16.982191)
(256.27029 0 -1.308505)
(240.88779 0 -16.607785)
(249.706 1.0636901e-16 -2.9347046)
(244.25916 -1.2374641e-16 -14.787962)
(247.03434 -2.2018271e-16 -5.2383247)
(244.81095 2.0958805e-16 -12.758752)
(245.49018 -1.2409814e-17 -7.4040915)
(244.46939 5.9108879e-18 -11.166493)
(244.32097 -1.738094e-16 -8.9338036)
(243.71112 1.7017633e-16 -10.306858)
(243.2749 1.0113474e-17 -9.7224307)
(242.7388 -1.535844e-16 -10.077742)
(242.20695 1.3643524e-16 -10.032274)
(241.64433 -1.3192427e-20 -10.130433)
(241.06131 -8.1835323e-18 -10.177908)
(240.45513 0 -10.233966)
(239.82647 -7.3867569e-18 -10.281791)
(239.17526 -2.1027666e-16 -10.324414)
(238.50168 2.1232146e-16 -10.360268)
(237.80598 1.2602869e-17 -10.388694)
(237.08851 -1.1948645e-17 -10.408817)
(236.34974 2.1532329e-16 -10.419778)
(235.5903 -1.7151465e-16 -10.420691)
(234.81094 1.0171037e-17 -10.410661)
(234.0126 1.9286513e-16 -10.388798)
(233.19637 -1.2757849e-16 -10.354229)
(232.36355 0 -10.306112)
(231.51558 1.4741828e-16 -10.243653)
(230.65411 -1.2373796e-16 -10.16613)
(229.78094 2.493808e-16 -10.072903)
(228.89804 -1.3317249e-17 -9.9634374)
(228.00754 -2.094726e-16 -9.837325)
(227.11169 1.7374359e-16 -9.6942984)
(226.21283 -1.8716267e-16 -9.5342459)
(225.31339 -3.1478036e-20 -9.3572281)
(224.41584 2.0923529e-16 -9.1634853)
(223.52267 -3.1576958e-16 -8.9534434)
(222.63634 9.2935247e-17 -8.7277166)
(221.75923 3.5187726e-17 -8.4871034)
(220.89366 -4.9755758e-17 -8.2325809)
(220.0418 0 -7.965289)
(219.20565 -8.8535444e-17 -7.6865168)
(218.38704 1.3866049e-16 -7.3976788)
(217.58761 -2.093695e-16 -7.100293)
(216.80875 1.9672317e-16 -6.7959559)
(216.05163 -2.0865766e-16 -6.4863119)
(215.31721 3.9235052e-16 -6.1730272)
(214.60619 -3.074773e-16 -5.8577627)
(213.91905 3.0833297e-16 -5.5421464)
(213.25608 -1.4472068e-16 -5.2277506)
(212.61733 1.3623098e-16 -4.9160696)
(212.00271 -9.5767862e-17 -4.6085003)
(211.41194 3.0031045e-17 -4.3063292)
(210.84458 0 -4.0107177)
(210.30007 0 -3.7226965)
(209.7777 0 -3.4431595)
(209.27666 2.3246589e-17 -3.1728609)
(208.79602 0 -2.9124141)
(208.33475 -1.6362026e-16 -2.6623001)
(207.89169 1.9154458e-16 -2.4228649)
(207.46563 -1.0781377e-16 -2.194327)
(207.05534 -1.1725576e-19 -1.9768168)
(206.65948 2.5224249e-16 -1.7703374)
(206.27656 2.96263e-17 -1.5747988)
(205.90482 -1.3835115e-16 -1.3900359)
(205.5422 5.1884063e-17 -1.2158238)
(205.18643 -1.4576057e-16 -1.0518966)
(204.83514 -4.5546187e-17 -0.89795725)
(204.48608 -6.4025428e-17 -0.75368222)
(204.13703 -6.0040991e-17 -0.61873562)
(203.78552 5.6265927e-17 -0.49280648)
(203.42866 0 -0.3755801)
(203.06368 0 -0.26686073)
(202.68867 -1.5509716e-17 -0.16741367)
(202.3046 0 -0.076272444)
(201.91537 6.8514642e-18 0.013942875)
(201.50054 5.1595081e-17 0.076569869)
(201.05789 -7.2873593e-17 0.08592099)
(200.76491 -1.4649066e-20 0.49129755)
(218.99302 0 -20.131149)
(257.39995 -8.7776579e-18 -3.754644)
(241.48311 2.6642721e-16 -19.879093)
(250.54687 -2.4840619e-16 -5.4187606)
(244.80949 2.5398522e-16 -17.966156)
(247.76832 -2.3214601e-16 -7.8580554)
(245.40658 -2.2147755e-16 -15.774626)
(246.10324 2.0958578e-16 -10.166501)
(245.0197 0 -14.035512)
(244.83444 0 -11.779033)
(244.18264 1.7968333e-16 -13.108141)
(243.69834 -1.7022697e-16 -12.561411)
(243.11737 -1.0112806e-17 -12.868077)
(242.53672 2.8765848e-17 -12.830358)
(241.92516 -9.1030994e-18 -12.903892)
(241.29158 3.452736e-17 -12.937679)
(240.63376 0 -12.973697)
(239.95233 0 -13.000647)
(239.24733 -2.3580657e-16 -13.019945)
(238.51907 2.0912642e-16 -13.030244)
(237.76794 0 -13.030691)
(236.99449 0 -13.020292)
(236.19942 -1.9028067e-16 -12.998047)
(235.3836 3.601033e-16 -12.962949)
(234.54811 -1.7031596e-16 -12.91399)
(233.6942 -2.0176866e-17 -12.850186)
(232.82333 -3.8216169e-17 -12.770594)
(231.93717 -1.4480722e-16 -12.674334)
(231.03759 1.1955933e-16 -12.560608)
(230.12662 0 -12.428726)
(229.20651 -3.062288e-17 -12.278123)
(228.27963 0 -12.108387)
(227.34852 0 -11.91927)
(226.41579 2.067216e-16 -11.710715)
(225.48413 -2.1910741e-16 -11.482863)
(224.55627 2.2983801e-17 -11.236067)
(223.63492 -2.168668e-17 -10.970895)
(222.72275 -4.1003088e-17 -10.68813)
(221.82232 -8.831901e-20 -10.388768)
(220.93608 8.3809703e-20 -10.074)
(220.06629 -7.9017678e-20 -9.7452032)
(219.21503 0 -9.4039112)
(218.38413 -1.2172022e-16 -9.0517978)
(217.5752 1.1430108e-16 -8.6906403)
(216.78955 0 -8.3222917)
(216.02826 -5.0664117e-17 -7.948652)
(215.29213 1.904182e-16 -7.571629)
(214.58168 -2.2322513e-16 -7.1931136)
(213.8972 -2.1001754e-16 -6.814948)
(213.23875 1.5745953e-16 -6.4389004)
(212.60618 1.1105593e-16 -6.0666416)
(211.99913 -1.386248e-16 -5.6997273)
(211.41711 -3.2500508e-17 -5.33958)
(210.85945 -2.1351618e-16 -4.987482)
(210.32538 1.1419774e-16 -4.6445636)
(209.81403 -1.0710747e-16 -4.311803)
(209.32441 1.0018408e-16 -3.9900243)
(208.85547 2.3473788e-16 -3.6798985)
(208.40609 -1.7556588e-16 -3.3819475)
(207.97505 0 -3.0965546)
(207.56106 -3.8420622e-17 -2.8239656)
(207.16279 -7.1919508e-17 -2.5642964)
(206.77893 1.3438732e-16 -2.3175742)
(206.40811 1.2573521e-16 -2.0837074)
(206.04879 -2.3497236e-16 -1.8625085)
(205.69928 8.2295114e-17 -1.6537193)
(205.35755 5.130138e-17 -1.4570243)
(205.02136 9.5910923e-17 -1.2720743)
(204.68835 1.3446262e-16 -1.0985011)
(204.35627 2.4603059e-20 -0.93592263)
(204.02296 0 -0.78394238)
(203.68605 0 -0.64219023)
(203.34273 -3.4222748e-17 -0.51037147)
(202.99003 9.6021809e-17 -0.3883779)
(202.62636 -8.9808144e-17 -0.27650501)
(202.25344 -8.4071161e-17 -0.1732367)
(201.87108 5.2462436e-17 -0.075821309)
(201.46195 0 -0.0084388902)
(201.04764 4.6077278e-17 0.041851983)
(200.71571 2.6108577e-20 0.37074178)
(219.59574 0 -23.450063)
(258.3314 1.830396e-20 -6.2776638)
(241.88256 9.0655345e-18 -23.247553)
(251.21553 2.8769128e-16 -8.0385942)
(245.19966 3.3323644e-19 -21.244339)
(248.27041 -5.0514313e-16 -10.624481)
(245.75698 -3.2388554e-19 -18.882883)
(246.47745 4.5581996e-16 -13.088241)
(245.32731 -2.0978765e-16 -17.002892)
(245.10167 -1.2443556e-17 -14.771036)
(244.40708 1.1818912e-17 -16.02003)
(243.8698 -1.7947271e-16 -15.523617)
(243.24029 1.912134e-16 -15.773707)
(242.60658 -1.8168782e-16 -15.739937)
(241.94158 3.0606348e-16 -15.786816)
(241.25266 -3.0837385e-16 -15.802769)
(240.53817 1.3744052e-16 -15.815673)
(239.79873 0 -15.818062)
(239.03458 0 -15.810191)
(238.24623 1.4640256e-17 -15.790707)
(237.43433 -2.7761753e-17 -15.758526)
(236.59973 0 -15.712482)
(235.74346 1.9935343e-16 -15.651409)
(234.86679 4.7410276e-19 -15.574166)
(233.97118 -3.5677449e-16 -15.479635)
(233.05834 1.685767e-16 -15.366759)
(232.1302 1.9945352e-17 -15.234566)
(231.18892 0 -15.082183)
(230.23685 -1.7868406e-16 -14.908872)
(229.27653 1.3473553e-16 -14.71405)
(228.3107 -2.2343528e-16 -14.497316)
(227.3422 2.1030178e-16 -14.258472)
(226.37398 -2.2761093e-16 -13.99754)
(225.40906 2.1424303e-16 -13.714784)
(224.45043 7.5950558e-17 -13.410709)
(223.50109 0 -13.086069)
(222.56393 0 -12.741869)
(221.64171 4.2329274e-17 -12.379347)
(220.737 3.9869106e-17 -11.999966)
(219.85218 -3.7536422e-17 -11.605382)
(218.98933 3.5325414e-17 -11.197429)
(218.1503 6.6652875e-17 -10.778073)
(217.33661 -6.2599404e-17 -10.349394)
(216.54946 3.5295758e-16 -9.9135322)
(215.78978 -2.7610008e-16 -9.4726625)
(215.05815 5.1820547e-17 -9.0289544)
(214.35488 -4.8763683e-17 -8.5845356)
(213.67999 0 -8.1414636)
(213.03326 2.1432784e-16 -7.7016956)
(212.41426 -1.6053825e-16 -7.2670673)
(211.82235 0 -6.8392717)
(211.25674 0 -6.4198481)
(210.71649 1.3210228e-16 -6.010169)
(210.20059 -6.1746498e-17 -5.6114379)
(209.7079 0 -5.2246856)
(209.23726 -1.6223979e-16 -4.8507733)
(208.78744 1.0099208e-16 -4.4903974)
(208.35717 1.417583e-16 -4.1440947)
(207.94513 -1.7633774e-16 -3.81225)
(207.54999 1.6482672e-16 -3.495111)
(207.17035 -1.5375065e-16 -3.1927905)
(206.80479 6.6911486e-20 -2.9052761)
(206.45195 0 -2.6324706)
(206.11042 6.2498147e-17 -2.374171)
(205.7787 -2.9139728e-16 -2.1300811)
(205.45512 1.6297355e-16 -1.8998408)
(205.13775 0 -1.6830395)
(204.82441 -1.4170578e-16 -1.4792419)
(204.51277 8.8026658e-17 -1.2880091)
(204.20061 1.231495e-16 -1.1088964)
(203.88583 3.4749153e-20 -0.94144593)
(203.5662 -7.1278177e-17 -0.78525657)
(203.23894 9.9688255e-17 -0.64008083)
(202.90109 -1.5486399e-16 -0.50575193)
(202.55142 8.6617764e-17 -0.3820663)
(202.19143 2.6908843e-17 -0.26800955)
(201.81848 5.0227412e-17 -0.163909)
(201.42111 0 -0.086907774)
(201.02874 -4.3746364e-17 -0.0117505)
(200.667 2.0379507e-17 0.2536268)
(219.98839 0 -26.935367)
(259.05967 9.7671867e-18 -8.9081756)
(242.08552 -3.0563361e-16 -26.742194)
(251.70167 2.4910111e-16 -10.799094)
(245.4003 2.5636374e-16 -24.62233)
(248.53048 -4.9957175e-16 -13.544167)
(245.91592 2.2996849e-16 -22.073795)
(246.60414 2.3275394e-16 -16.170032)
(245.40956 -2.206479e-16 -20.053385)
(245.11577 3.9273529e-17 -17.896115)
(244.37617 0 -19.030557)
(243.7799 0 -18.594331)
(243.09633 -2.2338966e-17 -18.784821)
(242.40312 -1.6961014e-16 -18.751394)
(241.67777 1.4036637e-16 -18.771345)
(240.92632 1.9042529e-17 -18.766272)
(240.14777 -3.6097526e-17 -18.753315)
(239.34289 3.0797513e-16 -18.7274)
(238.51226 -2.2631602e-16 -18.687977)
(237.65671 2.4564902e-16 -18.633578)
(236.77728 -2.0299544e-16 -18.56291)
(235.87523 2.7524186e-17 -18.474643)
(234.95207 1.5636793e-16 -18.367477)
(234.00955 -1.966684e-16 -18.240171)
(233.04968 0 -18.091548)
(232.07473 0 -17.92054)
(231.08721 0 -17.726215)
(230.08987 -1.9698353e-16 -17.507799)
(229.08564 1.8555379e-16 -17.264714)
(228.07766 -3.5161909e-17 -16.996598)
(227.06916 0 -16.703341)
(226.06348 -2.8186659e-16 -16.385093)
(225.06401 2.3557447e-16 -16.042283)
(224.07409 -5.5723334e-17 -15.67563)
(223.097 1.5758366e-16 -15.286142)
(222.13589 -4.8967247e-17 -14.875101)
(221.1937 -1.857428e-16 -14.444061)
(220.27315 2.1912567e-16 -13.994814)
(219.37666 -1.6450511e-16 -13.529364)
(218.50636 7.7601617e-17 -13.049895)
(217.664 -7.2812465e-17 -12.558728)
(216.85099 1.3688361e-16 -12.058278)
(216.06837 -6.4137148e-17 -11.551013)
(215.3168 -2.4140484e-16 -11.03941)
(214.59663 5.090403e-16 -10.525913)
(213.90784 -2.1201318e-16 -10.012893)
(213.25013 -1.4940781e-16 -9.5026194)
(212.62295 9.289095e-17 -8.9972285)
(212.0255 8.7384538e-17 -8.4986998)
(211.45681 -1.6347264e-16 -8.0088405)
(210.91573 1.5273956e-16 -7.5292726)
(210.40103 0 -7.0614276)
(209.91136 1.3369407e-16 -6.6065428)
(209.44535 -1.8726689e-16 -6.1656649)
(209.00155 5.8359545e-17 -5.7396538)
(208.57854 5.4388701e-17 -5.3291912)
(208.17488 0 -4.9347913)
(207.78913 0 -4.5568095)
(207.41983 0 -4.1954548)
(207.06557 0 -3.8508068)
(206.72486 0 -3.5228188)
(206.39627 -7.1465798e-17 -3.211331)
(206.0784 0 -2.916107)
(205.76984 -5.4345818e-20 -2.6368205)
(205.46914 2.3078282e-16 -2.3730604)
(205.1747 -2.1469257e-16 -2.1243606)
(204.8847 -9.9943113e-17 -1.8902136)
(204.59705 -1.8583245e-16 -1.6700999)
(204.3095 2.5903936e-16 -1.4635094)
(204.01986 4.3806607e-20 -1.2699325)
(203.72612 7.4611101e-17 -1.0888565)
(203.42617 0 -0.91988055)
(203.11733 0 -0.7627889)
(202.79678 0 -0.61721508)
(202.46353 -1.1137255e-16 -0.48263663)
(202.11818 0 -0.35921369)
(201.75714 -9.6227482e-17 -0.24843292)
(201.37598 1.3415406e-16 -0.15731056)
(201.00238 8.3158576e-17 -0.063936924)
(200.61816 -1.9280416e-17 0.14131329)
(220.17466 0 -30.596455)
(259.59096 0 -11.646972)
(242.09673 3.2155174e-16 -30.368658)
(252.00781 1.925717e-17 -13.71696)
(245.41152 -2.6910067e-16 -28.110962)
(248.63718 0 -16.638771)
(245.85789 1.6121456e-17 -25.339982)
(246.60659 -3.0551654e-17 -19.402596)
(245.22874 0 -23.16823)
(244.87496 1.9262668e-16 -21.141336)
(244.08312 -4.170644e-16 -22.139851)
(243.41671 1.9749105e-16 -21.771807)
(242.66878 2.3442546e-17 -21.904623)
(241.90579 0 -21.866952)
(241.10988 2.1034362e-17 -21.85896)
(240.28595 -3.3931872e-16 -21.828333)
(239.43366 7.4802234e-17 -21.784815)
(238.55405 2.5006864e-16 -21.724753)
(237.64809 2.3749301e-16 -21.647101)
(236.71708 -2.5616429e-16 -21.550269)
(235.76254 0 -21.432789)
(234.78629 -2.874372e-16 -21.29321)
(233.79044 2.4404833e-16 -21.130138)
(232.77737 -2.0570877e-16 -20.942291)
(231.74977 1.9388142e-16 -20.728513)
(230.7106 -1.8374564e-16 -20.487811)
(229.66306 3.4662668e-16 -20.219409)
(228.61059 -1.6357699e-16 -19.922757)
(227.55677 1.5470426e-16 -19.597584)
(226.50535 -2.9166859e-16 -19.243908)
(225.46011 1.3727492e-16 -18.862072)
(224.42485 1.2964911e-16 -18.452748)
(223.4033 -2.446192e-16 -18.01694)
(222.39906 5.678473e-17 -17.555982)
(221.41554 -5.7677696e-19 -17.071531)
(220.45586 2.5450037e-16 -16.565526)
(219.52286 0 -16.040175)
(218.61899 1.9748121e-19 -15.497906)
(217.7463 0 -14.94132)
(216.90644 -7.9443e-17 -14.373146)
(216.10059 -1.4930244e-16 -13.796191)
(215.32954 7.010556e-17 -13.213282)
(214.59363 0 -12.627223)
(213.89283 -6.1779162e-17 -12.040742)
(213.22674 2.891573e-16 -11.456455)
(212.59466 -3.2464004e-16 -10.876832)
(211.9956 -3.0418716e-16 -10.304165)
(211.42835 2.840184e-16 -9.7405485)
(210.89153 -1.7724936e-16 -9.1878678)
(210.38361 0 -8.6477887)
(209.90297 0 -8.1217563)
(209.44796 7.2346024e-17 -7.6109971)
(209.01685 6.7517109e-17 -7.116527)
(208.60797 1.2582989e-16 -6.6391594)
(208.21963 -5.867748e-17 -6.1795178)
(207.8502 -1.0930432e-16 -5.7380494)
(207.49809 -2.0383416e-16 -5.3150399)
(207.16173 -9.5094635e-17 -4.9106268)
(206.83963 1.7655561e-16 -4.5248135)
(206.53029 0 -4.1574893)
(206.23224 -7.6475821e-17 -3.808431)
(205.94403 -1.4215588e-16 -3.4773196)
(205.66428 1.3207968e-16 -3.1637737)
(205.39163 6.1263576e-17 -2.8673382)
(205.1247 5.6981103e-17 -2.5874869)
(204.86197 0 -2.3236484)
(204.60177 1.9645175e-16 -2.0752221)
(204.34213 1.8229489e-16 -1.8416082)
(204.08089 -2.5367545e-16 -1.6222265)
(203.81595 7.8455418e-17 -1.4165016)
(203.54538 -7.2726185e-17 -1.2238818)
(203.26718 -4.5796015e-20 -1.0439916)
(202.97881 2.4997162e-16 -0.87659147)
(202.67778 -2.3167775e-16 -0.72102185)
(202.36302 5.3636939e-17 -0.57675678)
(202.03386 1.4920328e-16 -0.44543315)
(201.68709 -4.6090782e-17 -0.32782913)
(201.32563 -4.2695569e-17 -0.22106262)
(200.9696 0 -0.11639804)
(200.56742 3.6581797e-17 0.034568093)
(220.16168 3.8892208e-16 -34.442543)
(259.92664 5.4109377e-19 -14.501381)
(241.88693 -3.5840144e-16 -34.14073)
(252.12444 0 -16.794513)
(245.15124 0 -31.671045)
(248.36533 -2.6718146e-16 -19.902213)
(245.49942 2.704975e-16 -28.663481)
(246.06574 6.4134456e-17 -22.799782)
(244.79578 -2.4349421e-16 -26.38862)
(244.35021 2.3030687e-16 -24.53543)
(243.49583 -2.4616697e-16 -25.375565)
(242.74664 2.0690736e-16 -25.070871)
(241.92244 -4.9087747e-17 -25.144983)
(241.07813 -4.655233e-17 -25.093227)
(240.20025 -1.7640004e-16 -25.052087)
(239.29282 1.6661393e-16 -24.98804)
(238.3562 -3.5581968e-16 -24.905932)
(237.39179 5.9811703e-16 -24.802799)
(236.40115 -2.8260282e-16 -24.67719)
(235.38616 -2.6815153e-16 -24.527355)
(234.34901 2.5286694e-16 -24.351673)
(233.29223 -3.0118967e-17 -24.1486)
(232.21872 -2.2668651e-16 -23.916718)
(231.13166 2.1353724e-16 -23.654794)
(230.03457 2.5296982e-16 -23.361804)
(228.93124 -1.4263437e-16 -23.036982)
(227.82566 0 -22.679867)
(226.72204 2.5510233e-16 -22.290324)
(225.62465 -3.2041695e-16 -21.868588)
(224.53782 1.1273407e-16 -21.415268)
(223.46582 -2.8505275e-16 -20.931368)
(222.41282 2.0083416e-16 -20.418282)
(221.38273 -6.328658e-17 -19.877781)
(220.37923 2.378193e-16 -19.311984)
(219.40561 -2.230794e-16 -18.723337)
(218.46474 -2.1025468e-16 -18.114552)
(217.55903 1.9706795e-16 -17.488566)
(216.69039 -4.6219611e-17 -16.848482)
(215.86023 0 -16.1975)
(215.06943 8.1799755e-17 -15.538863)
(214.31836 -7.63438e-17 -14.875793)
(213.60695 0 -14.211434)
(212.93468 1.344398e-16 -13.548801)
(212.30065 -6.2892598e-17 -12.890741)
(211.70365 -1.7633921e-16 -12.239896)
(211.14218 5.5006823e-16 -11.598679)
(210.61456 -2.0596164e-16 -10.969256)
(210.11891 9.6060043e-17 -10.353541)
(209.65329 -2.6936377e-16 -9.7531897)
(209.21567 -1.815768e-19 -9.1696049)
(208.80402 1.5618654e-16 -8.6039483)
(208.4163 -1.4570583e-16 -8.0571495)
(208.05052 -6.7809426e-17 -7.5299231)
(207.70478 -6.3165074e-17 -7.0227848)
(207.37723 -1.1794532e-16 -6.5360688)
(207.06609 2.1904046e-16 -6.0699463)
(206.76972 0 -5.6244428)
(206.4865 9.4660541e-17 -5.1994539)
(206.21492 -3.5224299e-16 -4.7947617)
(205.95351 2.451577e-16 -4.4100545)
(205.70083 7.5871977e-17 -4.0449261)
(205.45549 1.4095288e-16 -3.6988973)
(205.21617 1.3096752e-16 -3.3714435)
(204.98157 -1.2118244e-16 -3.0619829)
(204.7504 -1.1230107e-16 -2.7698795)
(204.52128 -3.1240582e-16 -2.4944636)
(204.29268 -4.1069293e-20 -2.2350493)
(204.06278 -8.9285233e-17 -1.9909633)
(203.82957 0 -1.7615568)
(203.59104 -2.2954044e-16 -1.5461931)
(203.34535 7.0781502e-17 -1.3443039)
(203.09058 0 -1.1555468)
(202.82444 1.2110527e-16 -0.97957517)
(202.54482 0 -0.81541953)
(202.25032 1.0346747e-16 -0.66292777)
(201.93873 -1.4338625e-16 -0.52514042)
(201.60857 1.3250608e-16 -0.4003747)
(201.26965 -8.1607421e-17 -0.27761588)
(200.93023 7.5369124e-17 -0.16790417)
(200.5144 0 -0.0659409)
(219.93266 -4.0858562e-16 -38.480546)
(260.05124 3.617317e-16 -17.488127)
(241.42116 -3.3250081e-16 -38.083794)
(251.96629 3.3005514e-16 -20.043702)
(244.60381 3.1664373e-16 -35.295665)
(247.87858 -1.797845e-17 -23.357871)
(244.91183 -2.8346145e-16 -32.075331)
(245.41108 -2.6901629e-16 -26.389255)
(244.04819 2.8641104e-16 -29.726936)
(243.49765 0 -28.074453)
(242.57036 2.8578462e-17 -28.741135)
(241.72599 0 -28.488255)
(240.81293 -1.2855155e-16 -28.503361)
(239.87507 2.4272477e-16 -28.426108)
(238.90301 0 -28.344211)
(237.90032 0 -28.236611)
(236.86817 0 -28.105081)
(235.8086 3.9096578e-17 -27.946919)
(234.7239 0 -27.760357)
(233.61679 -2.4451454e-16 -27.543523)
(232.49036 3.2944719e-16 -27.294702)
(231.3481 1.2465923e-16 -27.012366)
(230.19387 1.767613e-16 -26.695198)
(229.03187 -2.7764943e-16 -26.342176)
(227.86659 -5.2318779e-17 -25.952608)
(226.70276 -2.4761593e-16 -25.526176)
(225.54526 1.8636311e-16 -25.062976)
(224.39905 -2.2012093e-16 -24.563553)
(223.26906 8.2350575e-17 -24.028902)
(222.16011 7.7862052e-17 -23.460486)
(221.0768 0 -22.860216)
(220.02339 2.7702845e-16 -22.230427)
(219.00377 -2.6019582e-16 -21.573849)
(218.02132 0 -20.893543)
(217.07888 -2.3003209e-16 -20.192852)
(216.17871 2.1546245e-16 -19.475326)
(215.32242 -1.0154557e-16 -18.744644)
(214.51103 1.9011178e-16 -18.004548)
(213.74494 -2.6713315e-16 -17.258757)
(213.02401 1.2752467e-19 -16.510905)
(212.34755 -1.5608538e-16 -15.764478)
(211.71443 -7.3046801e-17 -15.022758)
(211.12314 -1.3710358e-16 -14.288786)
(210.57184 2.5559942e-16 -13.565332)
(210.05845 -1.1927618e-16 -12.854872)
(209.58069 0 -12.15958)
(209.13621 -3.8254418e-19 -11.481328)
(208.72254 9.7040205e-17 -10.821696)
(208.33725 0 -10.181978)
(207.97791 8.4408966e-17 -9.5632011)
(207.64216 7.8925434e-17 -8.9661488)
(207.32773 -7.3286258e-17 -8.3913775)
(207.03246 2.7285252e-16 -7.8392401)
(206.7543 -2.5366025e-16 -7.309909)
(206.49133 -1.179756e-16 -6.8033957)
(206.24176 -1.0960089e-16 -6.3195727)
(206.00393 1.0177093e-16 -5.858191)
(205.77627 1.8878845e-16 -5.4188976)
(205.55732 -3.5020272e-16 -5.0012515)
(205.34569 4.0587001e-16 -4.6047429)
(205.14003 -1.5039172e-16 -4.2287878)
(204.93905 1.3940392e-16 -3.8727547)
(204.74152 -1.2904856e-16 -3.5359866)
(204.54625 2.3900567e-16 -3.2177842)
(204.35205 -3.3179458e-16 -2.9174128)
(204.15771 2.0453878e-16 -2.6341162)
(203.96183 -7.9360092e-20 -2.3671357)
(203.7628 8.7431676e-17 -2.1157324)
(203.55878 0 -1.8791919)
(203.34787 0 -1.6568273)
(203.12829 0 -1.4480798)
(202.8982 -1.2707552e-16 -1.2526211)
(202.65568 1.3574809e-20 -1.0699077)
(202.39903 0 -0.89874005)
(202.12613 0 -0.73969476)
(201.83333 9.1912566e-17 -0.59676748)
(201.52197 -1.6937658e-16 -0.4644449)
(201.20756 0 -0.32622877)
(200.88394 0 -0.21617956)
(200.45928 -1.3194989e-16 -0.15903304)
(219.4528 2.7581962e-17 -42.718493)
(259.92453 -7.8322707e-16 -20.625207)
(240.67096 3.4785929e-16 -42.165955)
(251.27419 -2.169594e-17 -23.476426)
(243.7467 3.7321118e-16 -39.041926)
(247.04947 -3.5165673e-16 -27.037455)
(243.99328 0 -35.599775)
(244.36415 -3.169049e-16 -30.166899)
(242.95049 2.3301059e-16 -33.178301)
(242.27474 2.2131352e-16 -31.752267)
(241.26101 -2.3890174e-16 -32.239649)
(240.30715 0 -32.020013)
(239.2906 1.9618339e-19 -31.974067)
(238.24531 0 -31.857588)
(237.16557 3.8485783e-16 -31.723673)
(236.05496 -7.2703407e-16 -31.558952)
(234.91563 3.4323726e-16 -31.363334)
(233.75053 -4.0544407e-17 -31.134178)
(232.56302 -3.8531993e-17 -30.869504)
(231.35692 3.6627231e-17 -30.567397)
(230.1365 -6.8379912e-17 -30.22621)
(228.90646 -3.2395497e-16 -29.844595)
(227.67188 3.0489444e-16 -29.421576)
(226.43813 5.7474888e-17 -28.956616)
(225.21081 -2.7240749e-16 -28.449641)
(223.99564 -7.0225918e-19 -27.901111)
(222.79836 2.8931625e-16 -27.312015)
(221.6246 -1.8159271e-16 -26.683896)
(220.47975 -6.2387954e-19 -26.018839)
(219.36886 0 -25.319447)
(218.29652 0 -24.588797)