/*--------------------------------*- C++ -*----------------------------------*\
| =========                 |                                                 |
| \\      /  F ield         | OpenFOAM: The Open Source CFD Toolbox           |
|  \\    /   O peration     | Version:  2512                                  |
|   \\  /    A nd           | Website:  www.openfoam.com                      |
|    \\/     M anipulation  |                                                 |
\*---------------------------------------------------------------------------*/
FoamFile
{
    version     2.0;
    format      ascii;
    arch        "LSB;label=32;scalar=64";
    class       volVectorField;
    location    "0.002";
    object      U;
}
// * * * * * * * * * * * * * * * * * * * * * * * * * * * * * * * * * * * * * //

dimensions      [0 1 -1 0 0 0 0];

internalField   nonuniform List<vector> 
100
(
(4.21983e-14 0 0)
(7.50711e-14 0 0)
(2.51359e-14 0 0)
(-3.60243e-14 0 0)
(-8.9712e-14 0 0)
(-3.24059e-14 0 0)
(3.2543e-14 0 0)
(3.77727e-15 0 0)
(-4.04731e-14 0 0)
(-3.29386e-14 0 0)
(2.52178e-14 0 0)
(1.86186e-14 0 0)
(-4.19471e-14 0 0)
(-1.45984e-14 0 0)
(-2.83249e-14 0 0)
(-8.99693e-16 0 0)
(6.00628e-14 0 0)
(-7.7757e-16 0 0)
(-4.69485e-14 0 0)
(-2.70519e-14 0 0)
(-1.28128e-15 0 0)
(4.95827e-14 0 0)
(-2.64717e-16 0 0)
(-1.89583e-14 0 0)
(-1.12365e-14 0 0)
(2.09088e-14 0 0)
(3.58478e-14 0 0)
(4.07499e-14 0 0)
(1.05512e-14 0 0)
(1.90805e-14 0 0)
(4.99699e-14 0 0)
(5.48668e-14 0 0)
(1.63057e-14 0 0)
(2.64544e-14 0 0)
(7.93071e-16 0 0)
(2.14599e-14 0 0)
(1.7622e-14 0 0)
(8.17965e-14 0 0)
(3.14972e-10 0 0)
(1.71249e-05 0 0)
(0.0263348 0 0)
(1.90865 0 0)
(17.6607 0 0)
(51.2661 0 0)
(88.0565 0 0)
(122.786 0 0)
(156.598 0 0)
(190.714 0 0)
(224.949 0 0)
(261.814 0 0)
(288.382 0 0)
(299.099 0 0)
(290.789 0 0)
(290.906 0 0)
(292.482 0 0)
(294.898 0 0)
(288.157 0 0)
(295.213 0 0)
(307.214 0 0)
(310.137 0 0)
(268.333 0 0)
(62.2499 0 0)
(0.226056 0 0)
(1.16432e-06 0 0)
(2.04643e-12 0 0)
(-4.42696e-14 0 0)
(-5.86984e-14 0 0)
(-2.56068e-14 0 0)
(4.58744e-14 0 0)
(1.19347e-13 0 0)
(6.42067e-14 0 0)
(8.6784e-15 0 0)
(-1.90493e-15 0 0)
(5.19003e-14 0 0)
(9.27285e-14 0 0)
(1.46984e-13 0 0)
(1.29579e-13 0 0)
(1.4585e-13 0 0)
(2.09459e-13 0 0)
(1.1654e-13 0 0)
(7.5977e-15 0 0)
(-5.77862e-14 0 0)
(-6.62693e-14 0 0)
(-1.21228e-13 0 0)
(-1.0912e-13 0 0)
(-1.48075e-13 0 0)
(-1.16253e-13 0 0)
(-1.21051e-13 0 0)
(-8.77394e-14 0 0)
(1.1936e-14 0 0)
(-5.88229e-15 0 0)
(6.95591e-15 0 0)
(-2.50552e-14 0 0)
(-1.43064e-14 0 0)
(-7.70815e-14 0 0)
(-7.04618e-15 0 0)
(-7.12461e-14 0 0)
(-5.90859e-15 0 0)
(-7.80049e-15 0 0)
(1.97242e-14 0 0)
)
;

boundaryField
{
    sides
    {
        type            zeroGradient;
    }
    empty
    {
        type            empty;
    }
}


// ************************************************************************* //
