/*--------------------------------*- C++ -*----------------------------------*\
| =========                 |                                                 |
| \\      /  F ield         | OpenFOAM: The Open Source CFD Toolbox           |
|  \\    /   O peration     | Version:  2512                                  |
|   \\  /    A nd           | Website:  www.openfoam.com                      |
|    \\/     M anipulation  |                                                 |
\*---------------------------------------------------------------------------*/
FoamFile
{
    version     2.0;
    format      ascii;
    arch        "LSB;label=32;scalar=64";
    class       volScalarField;
    location    "0.007";
    object      p;
}
// * * * * * * * * * * * * * * * * * * * * * * * * * * * * * * * * * * * * * //

dimensions      [1 -1 -2 0 0 0 0];

internalField   nonuniform List<scalar> 
100
(
100000
100000
100000
100000
100000
100000
100000
100000
100000
100000
100000
100000
100000
100000
100000
100000
100000
100000
100000
100000
100000
100000
99999.7
99930.1
98509.8
93531.3
87558.9
82756.6
78870
75435.2
72230
69173.7
66238.9
63414.6
60693.8
58071.1
55541.6
53100.8
50745.3
48471.8
46278
44162
42122.8
40159.6
38272.9
36464.5
34741.4
33123.7
31683.2
30608.6
30130.2
30192.8
30459
30350.3
30253.2
30220
30224.1
30243.3
30240.5
30239.5
30255
30268.7
30266.8
30254.2
30241.5
30269.2
30282.3
30287.4
30302.4
30338.6
30506.3
29995.5
29862.7
30520.9
30823.2
30803.6
30402.2
29967.2
29890.5
29855
29845.9
30045.3
30732.4
30987.1
30981
30834.8
30476
29835.2
24627.1
12300.3
10009.9
10000
10000
10000
10000
10000
10000
10000
10000
10000
)
;

boundaryField
{
    sides
    {
        type            zeroGradient;
    }
    empty
    {
        type            empty;
    }
}


// ************************************************************************* //
