/*--------------------------------*- C++ -*----------------------------------*\
| =========                 |                                                 |
| \\      /  F ield         | OpenFOAM: The Open Source CFD Toolbox           |
|  \\    /   O peration     | Version:  2512                                  |
|   \\  /    A nd           | Website:  www.openfoam.com                      |
|    \\/     M anipulation  |                                                 |
\*---------------------------------------------------------------------------*/
FoamFile
{
    version     2.0;
    format      ascii;
    arch        "LSB;label=32;scalar=64";
    class       volScalarField;
    location    "0.007";
    object      rho;
}
// * * * * * * * * * * * * * * * * * * * * * * * * * * * * * * * * * * * * * //

dimensions      [1 -3 0 0 0 0 0];

internalField   nonuniform List<scalar> 
100
(
0.999645
0.999645
0.999645
0.999645
0.999645
0.999645
0.999645
0.999645
0.999645
0.999645
0.999645
0.999645
0.999645
0.999645
0.999645
0.999645
0.999645
0.999645
0.999645
0.999645
0.999645
0.999645
0.999643
0.999145
0.988954
0.953014
0.909261
0.873452
0.844021
0.817657
0.792739
0.768678
0.745283
0.722485
0.700245
0.678532
0.657322
0.636591
0.616322
0.596502
0.57712
0.558175
0.539666
0.521605
0.504005
0.486901
0.470375
0.454643
0.440462
0.429724
0.424941
0.425588
0.428322
0.427252
0.426311
0.425906
0.425927
0.426102
0.426119
0.42626
0.426791
0.427442
0.427642
0.427505
0.427193
0.426769
0.424818
0.419452
0.40676
0.380971
0.341491
0.294847
0.267631
0.263949
0.264775
0.264694
0.262721
0.260902
0.261056
0.261336
0.26163
0.263217
0.267735
0.269528
0.269737
0.269218
0.267249
0.263588
0.230127
0.142188
0.125032
0.124955
0.124955
0.124955
0.124955
0.124955
0.124955
0.124955
0.124955
0.124955
)
;

boundaryField
{
    sides
    {
        type            calculated;
        value           nonuniform List<scalar> 2(0.124955 0.999645);
    }
    empty
    {
        type            empty;
    }
}


// ************************************************************************* //
