/*--------------------------------*- C++ -*----------------------------------*\
| =========                 |                                                 |
| \\      /  F ield         | OpenFOAM: The Open Source CFD Toolbox           |
|  \\    /   O peration     | Version:  2512                                  |
|   \\  /    A nd           | Website:  www.openfoam.com                      |
|    \\/     M anipulation  |                                                 |
\*---------------------------------------------------------------------------*/
FoamFile
{
    version     2.0;
    format      ascii;
    arch        "LSB;label=32;scalar=64";
    class       volScalarField;
    location    "0.007";
    object      T;
}
// * * * * * * * * * * * * * * * * * * * * * * * * * * * * * * * * * * * * * //

dimensions      [0 0 0 1 0 0 0];

internalField   nonuniform List<scalar> 
100
(
348.432
348.432
348.432
348.432
348.432
348.432
348.432
348.432
348.432
348.432
348.432
348.432
348.432
348.432
348.432
348.432
348.432
348.432
348.432
348.432
348.432
348.432
348.432
348.363
346.95
341.839
335.41
330.01
325.478
321.342
317.36
313.444
309.568
305.72
301.897
298.094
294.309
290.539
286.782
283.036
279.301
275.577
271.866
268.171
264.497
260.852
257.257
253.765
250.544
248.095
246.966
247.103
247.691
247.425
247.177
247.141
247.162
247.217
247.185
247.095
246.914
246.649
246.519
246.495
246.572
247.043
248.285
251.503
259.48
277.375
311.153
354.343
388.648
402.755
405.476
405.342
403.065
400.067
398.808
397.907
397.34
397.582
399.811
400.443
400.055
398.934
397.197
394.246
372.743
301.312
278.853
278.746
278.746
278.746
278.746
278.746
278.746
278.746
278.746
278.746
)
;

boundaryField
{
    sides
    {
        type            zeroGradient;
    }
    empty
    {
        type            empty;
    }
}


// ************************************************************************* //
