/*--------------------------------*- C++ -*----------------------------------*\
| =========                 |                                                 |
| \\      /  F ield         | OpenFOAM: The Open Source CFD Toolbox           |
|  \\    /   O peration     | Version:  2512                                  |
|   \\  /    A nd           | Website:  www.openfoam.com                      |
|    \\/     M anipulation  |                                                 |
\*---------------------------------------------------------------------------*/
FoamFile
{
    version     2.0;
    format      ascii;
    arch        "LSB;label=32;scalar=64";
    class       volVectorField;
    location    "0.007";
    object      U;
}
// * * * * * * * * * * * * * * * * * * * * * * * * * * * * * * * * * * * * * //

dimensions      [0 1 -1 0 0 0 0];

internalField   nonuniform List<vector> 
100
(
(-4.64258e-14 0 0)
(1.47418e-15 0 0)
(1.75243e-14 0 0)
(6.0855e-14 0 0)
(7.50306e-15 0 0)
(-1.62034e-14 0 0)
(1.63125e-14 0 0)
(6.01922e-14 0 0)
(3.24802e-14 0 0)
(4.82698e-14 0 0)
(7.33496e-14 0 0)
(6.72821e-14 0 0)
(6.60449e-15 0 0)
(-2.31334e-14 0 0)
(-4.44715e-14 0 0)
(-4.11961e-14 0 0)
(-2.0558e-14 0 0)
(6.69406e-15 0 0)
(3.44279e-14 0 0)
(2.15276e-14 0 0)
(1.09053e-12 0 0)
(8.37758e-08 0 0)
(0.000713785 0 0)
(0.186903 0 0)
(4.00512 0 0)
(17.7547 0 0)
(35.1221 0 0)
(49.874 0 0)
(62.3609 0 0)
(73.8367 0 0)
(84.9524 0 0)
(95.9506 0 0)
(106.909 0 0)
(117.855 0 0)
(128.801 0 0)
(139.758 0 0)
(150.734 0 0)
(161.739 0 0)
(172.777 0 0)
(183.855 0 0)
(194.975 0 0)
(206.137 0 0)
(217.336 0 0)
(228.565 0 0)
(239.808 0 0)
(251.04 0 0)
(262.201 0 0)
(273.104 0 0)
(283.222 0 0)
(291.139 0 0)
(294.52 0 0)
(294.102 0 0)
(292.182 0 0)
(293.035 0 0)
(293.702 0 0)
(293.955 0 0)
(293.85 0 0)
(293.7 0 0)
(293.722 0 0)
(293.767 0 0)
(293.805 0 0)
(293.772 0 0)
(293.626 0 0)
(293.667 0 0)
(293.732 0 0)
(293.513 0 0)
(293.449 0 0)
(293.484 0 0)
(293.463 0 0)
(293.58 0 0)
(294.885 0 0)
(291.333 0 0)
(289.146 0 0)
(295.53 0 0)
(298.182 0 0)
(297.949 0 0)
(294.152 0 0)
(290.035 0 0)
(289.234 0 0)
(288.812 0 0)
(288.695 0 0)
(290.576 0 0)
(296.985 0 0)
(299.33 0 0)
(299.2 0 0)
(297.771 0 0)
(294.317 0 0)
(288.334 0 0)
(236.313 0 0)
(51.2703 0 0)
(0.237583 0 0)
(3.13997e-06 0 0)
(5.72452e-12 0 0)
(-1.83775e-13 0 0)
(-1.90108e-13 0 0)
(-1.76655e-13 0 0)
(-1.76689e-13 0 0)
(-1.75797e-13 0 0)
(-1.60703e-13 0 0)
(-1.90937e-13 0 0)
)
;

boundaryField
{
    sides
    {
        type            zeroGradient;
    }
    empty
    {
        type            empty;
    }
}


// ************************************************************************* //
