/*--------------------------------*- C++ -*----------------------------------*\
| =========                 |                                                 |
| \\      /  F ield         | OpenFOAM: The Open Source CFD Toolbox           |
|  \\    /   O peration     | Version:  2512                                  |
|   \\  /    A nd           | Website:  www.openfoam.com                      |
|    \\/     M anipulation  |                                                 |
\*---------------------------------------------------------------------------*/
FoamFile
{
    version     2.0;
    format      ascii;
    arch        "LSB;label=32;scalar=64";
    class       volScalarField;
    location    "0.145";
    object      alphat;
}
// * * * * * * * * * * * * * * * * * * * * * * * * * * * * * * * * * * * * * //

dimensions      [1 -1 -1 0 0 0 0];

internalField   nonuniform List<scalar> 
16000
(
6.151894e-07
1.2048669e-05
2.113779e-05
2.5265246e-05
2.0071574e-05
2.7294804e-05
1.9371689e-05
2.6680343e-05
2.0732828e-05
2.8846232e-05
2.4126261e-05
2.8494556e-05
2.5876823e-05
2.6584397e-05
2.5652774e-05
2.5501663e-05
2.5226349e-05
2.51518e-05
2.5165014e-05
2.5288467e-05
2.5513949e-05
2.5840208e-05
2.6264552e-05
2.6787107e-05
2.7410159e-05
2.814031e-05
2.8986402e-05
2.9962568e-05
3.1086079e-05
3.2375593e-05
3.3851605e-05
3.5541347e-05
3.7479987e-05
3.9710883e-05
4.2287445e-05
4.5273465e-05
4.8745031e-05
5.2792964e-05
5.7529765e-05
6.3094989e-05
6.9652646e-05
7.7396039e-05
8.6568985e-05
9.7470417e-05
0.0001104565
0.00012595474
0.00014449548
0.00016672545
0.00019343268
0.00022557825
0.00026433924
0.00031116083
0.00036781171
0.00043646144
0.00051977164
0.00062102041
0.00074425725
0.00089450419
0.0010780261
0.0011789991
0.0011798318
0.0011805616
0.0011811935
0.0011816879
0.0011820411
0.0011822411
0.0011822793
0.0011821483
0.0011818374
0.001181327
0.0011805822
0.0011795378
0.0011781537
0.0011767265
0.0011754851
0.0011743329
0.0011732368
0.0011728435
0.0011718703
0.0011718158
5.271093e-07
1.1388722e-05
2.1047166e-05
2.267817e-05
1.8086866e-05
2.4444267e-05
1.7181011e-05
2.3321052e-05
1.8305902e-05
2.5419514e-05
2.182514e-05
2.5650229e-05
2.3640555e-05
2.405916e-05
2.3334135e-05
2.3128563e-05
2.2901827e-05
2.2824605e-05
2.2841419e-05
2.2956069e-05
2.3166115e-05
2.34699e-05
2.3865355e-05
2.4352721e-05
2.4933739e-05
2.5614579e-05
2.6402918e-05
2.7311492e-05
2.8356638e-05
2.955655e-05
3.0930316e-05
3.2502838e-05
3.4306683e-05
3.6382016e-05
3.8778824e-05
4.1557105e-05
4.4788896e-05
4.8559575e-05
5.2973973e-05
5.8164229e-05
6.4287992e-05
7.1527351e-05
8.0112022e-05
9.0327105e-05
0.00010251481
0.00011708167
0.00013453379
0.0001554905
0.00018070818
0.00021110998
0.00024782702
0.00029225184
0.00034609108
0.00041144234
0.00049088162
0.00058758496
0.00070548082
0.0008494376
0.0010255125
0.001178516
0.0011793477
0.0011800289
0.001180622
0.0011810805
0.0011814008
0.0011815703
0.0011815797
0.0011814217
0.0011810864
0.0011805552
0.0011797984
0.001178759
0.0011773947
0.001176033
0.0011748497
0.0011737305
0.0011727234
0.0011721399
0.0011716147
0.0011718468
4.6397059e-07
1.088497e-05
1.9895438e-05
2.0791562e-05
1.619884e-05
2.1521791e-05
1.5284854e-05
2.0244443e-05
1.6445414e-05
2.2266596e-05
1.9880235e-05
2.280648e-05
2.1392581e-05
2.1520404e-05
2.0965064e-05
2.0738108e-05
2.0550111e-05
2.0481043e-05
2.050332e-05
2.0613658e-05
2.0811221e-05
2.1094771e-05
2.1462552e-05
2.1915134e-05
2.2453883e-05
2.3084768e-05
2.3814691e-05
2.4655223e-05
2.5621616e-05
2.6731616e-05
2.8003379e-05
2.9459974e-05
3.113183e-05
3.3056374e-05
3.5280571e-05
3.7860952e-05
4.0865985e-05
4.4376806e-05
4.8491841e-05
5.3335878e-05
5.9061388e-05
6.5841893e-05
7.3895101e-05
8.3493301e-05
9.4967665e-05
0.00010870786
0.00012519977
0.00014503989
0.00016895837
0.00019784775
0.00023280126
0.00027516806
0.0003266034
0.00038914545
0.00046529952
0.00055815647
0.00067154328
0.00081020724
0.00098004663
0.0011781875
0.0011790076
0.001179625
0.0011801607
0.001180566
0.0011808367
0.0011809599
0.0011809256
0.0011807264
0.0011803532
0.0011797882
0.0011790044
0.0011779552
0.001176601
0.0011753127
0.0011741922
0.0011731317
0.0011721682
0.001171528
0.0011711851
0.0011714378
4.128348e-07
1.0509731e-05
1.8882986e-05
1.9905643e-05
1.4587135e-05
1.9001598e-05
1.3612806e-05
1.767543e-05
1.4793312e-05
1.9599234e-05
1.8136064e-05
2.029913e-05
1.9328908e-05
1.9245944e-05
1.8818205e-05
1.8592444e-05
1.8438189e-05
1.8382053e-05
1.8411814e-05
1.8520702e-05
1.8708685e-05
1.8975094e-05
1.9318562e-05
1.974015e-05
2.0241016e-05
2.0827091e-05
2.1504779e-05
2.2284739e-05
2.3181194e-05
2.4211528e-05
2.5393291e-05
2.6748003e-05
2.8304369e-05
3.0097478e-05
3.2171763e-05
3.4580789e-05
3.7389976e-05
4.0677171e-05
4.4535767e-05
4.9083766e-05
5.4469743e-05
6.0860812e-05
6.8465158e-05
7.7543803e-05
8.8420104e-05
0.00010147089
0.00011716625
0.00013608512
0.00015893769
0.00018659431
0.00022011973
0.00026083167
0.00031034803
0.00037066504
0.00044423887
0.00053410166
0.00064401037
0.00077863162
0.00094376603
0.0011466183
0.0011788793
0.0011794165
0.0011798768
0.0011802122
0.0011804175
0.0011804797
0.0011803878
0.0011801342
0.0011797107
0.0011791002
0.0011782774
0.0011772084
0.0011758534
0.0011746334
0.0011735738
0.0011725706
0.0011716334
0.0011709595
0.0011707679
0.001170731
3.6084872e-07
1.0237738e-05
1.8031657e-05
1.9964241e-05
1.4412039e-05
1.6802579e-05
1.21516e-05
1.5476283e-05
1.3378081e-05
1.7311212e-05
1.659499e-05
1.8051599e-05
1.741383e-05
1.7188081e-05
1.6854139e-05
1.6643708e-05
1.6516174e-05
1.6472359e-05
1.6507217e-05
1.6613205e-05
1.6790655e-05
1.7039645e-05
1.735923e-05
1.7751007e-05
1.8216081e-05
1.876039e-05
1.9389963e-05
2.011474e-05
2.0947919e-05
2.1906475e-05
2.3007566e-05
2.4271435e-05
2.5725373e-05
2.7402465e-05
2.9344987e-05
3.1603953e-05
3.4242089e-05
3.7334629e-05
4.0971253e-05
4.5263575e-05
5.0356971e-05
5.6413855e-05
6.3635094e-05
7.2271249e-05
8.2639915e-05
9.510811e-05
0.00011013305
0.00012827955
0.0001502415
0.00017687234
0.00020921378
0.00024855893
0.00029649584
0.00035498773
0.00042645248
0.00051387626
0.00062096108
0.00075230985
0.00091364773
0.0011120796
0.0011789243
0.0011793672
0.0011797362
0.0011799866
0.0011801123
0.0011801003
0.0011799386
0.0011796187
0.0011791338
0.0011784675
0.0011775945
0.0011764959
0.0011751464
0.0011739918
0.0011729922
0.0011720453
0.0011711296
0.0011704538
0.0011703462
0.0011700887
3.3166464e-07
1.005536e-05
1.735398e-05
1.9648619e-05
1.4184642e-05
1.4892995e-05
1.1542503e-05
1.3661507e-05
1.2613079e-05
1.5441417e-05
1.5255653e-05
1.6085605e-05
1.5668268e-05
1.5357298e-05
1.5081797e-05
1.4888385e-05
1.4777957e-05
1.4741917e-05
1.4778169e-05
1.4879343e-05
1.5045754e-05
1.5278074e-05
1.5575632e-05
1.59403e-05
1.6373363e-05
1.6880659e-05
1.7467912e-05
1.8144538e-05
1.892275e-05
1.9819092e-05
2.0850533e-05
2.2036302e-05
2.3402595e-05
2.4980863e-05
2.6811651e-05
2.8943901e-05
3.1438124e-05
3.4367539e-05
3.7819547e-05
4.1900336e-05
4.6752446e-05
5.2535364e-05
5.9445418e-05
6.772381e-05
7.7684611e-05
8.9688536e-05
0.00010418344
0.00012172434
0.00014299323
0.00016883328
0.0002002701
0.00023858097
0.00028533427
0.00034247214
0.00041238927
0.00049804367
0.00060310356
0.00073213288
0.00089081428
0.0010861984
0.0011791366
0.0011794721
0.0011797352
0.0011798869
0.0011799203
0.0011798222
0.0011795796
0.0011791832
0.0011786265
0.0011778957
0.0011769632
0.0011758235
0.0011744932
0.0011734005
0.0011724592
0.0011715671
0.0011706759
0.0011699966
0.0011698868
0.0011695254
2.9030684e-07
9.9460601e-06
1.6819992e-05
1.8526952e-05
1.4002718e-05
1.3149326e-05
1.1526317e-05
1.2571553e-05
1.2067766e-05
1.3722645e-05
1.4040251e-05
1.4345484e-05
1.4042642e-05
1.3695714e-05
1.3454612e-05
1.3279681e-05
1.3183088e-05
1.3154591e-05
1.3192794e-05
1.3290906e-05
1.3448823e-05
1.3667749e-05
1.3947259e-05
1.4204856e-05
1.4600765e-05
1.5067812e-05
1.5611065e-05
1.6239144e-05
1.6963111e-05
1.7798721e-05
1.8762727e-05
1.9873382e-05
2.1155893e-05
2.264017e-05
2.4365181e-05
2.6378007e-05
2.8737102e-05
3.1513733e-05
3.4793893e-05
3.8971327e-05
4.3631251e-05
4.9197465e-05
5.586455e-05
6.3865771e-05
7.3512963e-05
8.5163946e-05
9.9260608e-05
0.00011635206
0.00013711216
0.00016237994
0.0001931711
0.00023075496
0.0002766893
0.00033290573
0.00040178879
0.00048628414
0.00059004457
0.00071761622
0.00087466551
0.0010682262
0.001179494
0.0011797107
0.0011798557
0.0011798972
0.0011798275
0.0011796333
0.0011793009
0.0011788193
0.0011781823
0.0011773794
0.0011763816
0.0011751873
0.001173902
0.001172868
0.0011719819
0.0011711445
0.0011702836
0.0011695949
0.0011694315
0.0011690284
2.6132917e-07
9.8834985e-06
1.635854e-05
1.6799561e-05
1.2544958e-05
1.1450095e-05
9.717899e-06
1.1166354e-05
1.0212943e-05
1.2362926e-05
1.2811222e-05
1.2744511e-05
1.2491026e-05
1.2155056e-05
1.1943409e-05
1.179255e-05
1.1712773e-05
1.1695193e-05
1.1667264e-05
1.1748366e-05
1.1888887e-05
1.2089136e-05
1.2347364e-05
1.2663425e-05
1.3042217e-05
1.348743e-05
1.4004311e-05
1.4601447e-05
1.528933e-05
1.6083279e-05
1.7000318e-05
1.8058219e-05
1.9281765e-05
2.0699942e-05
2.2350847e-05
2.4280439e-05
2.6545998e-05
2.9217655e-05
3.2381024e-05
3.6140414e-05
4.062303e-05
4.5989965e-05
5.2436157e-05
6.0696144e-05
7.0124865e-05
8.1535345e-05
9.5367291e-05
0.00011216775
0.00013260636
0.00015752459
0.00018793478
0.00022510664
0.00027059727
0.00032633908
0.00039472048
0.00047869199
0.00058191123
0.00070893002
0.00086542606
0.0010584546
0.0011799759
0.0011800642
0.0011800813
0.0011800033
0.0011798218
0.0011795237
0.0011790942
0.001178521
0.0011777969
0.0011769154
0.0011758511
0.0011745901
0.0011733803
0.0011724024
0.001171568
0.0011707853
0.0011699625
0.0011692546
0.0011690281
0.0011685834
2.4241173e-07
9.8416472e-06
1.5864951e-05
1.4709721e-05
1.0276606e-05
1.0200512e-05
8.0388941e-06
9.5904331e-06
9.7591327e-06
1.1079114e-05
1.1575539e-05
1.1264532e-05
1.1036912e-05
1.0737081e-05
1.0554136e-05
1.0355989e-05
1.0267001e-05
1.0245279e-05
1.0283482e-05
1.0378286e-05
1.0524581e-05
1.0725964e-05
1.0979926e-05
1.1287233e-05
1.1652685e-05
1.2080868e-05
1.2577143e-05
1.3150169e-05
1.3810075e-05
1.4571747e-05
1.5452599e-05
1.6470193e-05
1.7649219e-05
1.9018046e-05
2.061428e-05
2.2483244e-05
2.4681567e-05
2.7278824e-05
3.0360105e-05
3.4029006e-05
3.8413355e-05
4.3672216e-05
5.0003986e-05
5.7638931e-05
6.687214e-05
7.8070783e-05
9.2485902e-05
0.00010915166
0.00012945385
0.00015424267
0.00018453399
0.00022160637
0.00026702625
0.00032273839
0.00039114935
0.0004752321
0.00057867001
0.00070604477
0.00086307258
0.0010568666
0.0011805571
0.0011805098
0.0011803921
0.0011801878
0.0011798882
0.0011794803
0.0011789488
0.0011782798
0.0011774642
0.001176498
0.0011753703
0.0011740615
0.0011729339
0.0011720104
0.0011712237
0.0011704954
0.0011697208
0.0011689879
0.0011686757
0.0011681584
2.1708657e-07
9.7978656e-06
1.4041204e-05
1.2862277e-05
8.3083439e-06
9.0809575e-06
7.2877868e-06
8.6379938e-06
9.0395041e-06
9.9132908e-06
1.0357172e-05
9.9233503e-06
9.70565e-06
9.3557228e-06
9.1639222e-06
9.042961e-06
8.9898664e-06
8.9951665e-06
9.0514695e-06
9.1595441e-06
9.3134192e-06
9.5153201e-06
9.7668577e-06
1.0068137e-05
1.0424256e-05
1.0840289e-05
1.1321798e-05
1.1877674e-05
1.2517851e-05
1.3256821e-05
1.4112458e-05
1.510244e-05
1.6251599e-05
1.7587977e-05
1.9149024e-05
2.0979864e-05
2.313695e-05
2.5689901e-05
2.8724321e-05
3.2344478e-05
3.6678551e-05
4.188545e-05
4.8167532e-05
5.5755583e-05
6.4947848e-05
7.6114464e-05
8.9711886e-05
0.00010627623
0.00012764397
0.0001525248
0.00018296204
0.00022025135
0.00026597936
0.00032211542
0.00039109927
0.00047594503
0.00058038428
0.00070905519
0.00086774142
0.0010636494
0.0011812115
0.0011810237
0.001180767
0.0011804323
0.0011800108
0.0011794896
0.0011788531
0.0011780862
0.0011771779
0.001176123
0.0011749313
0.001173622
0.0011725676
0.0011716972
0.0011709549
0.0011702784
0.0011695591
0.0011688102
0.0011683929
0.0011678707
1.9897377e-07
9.7472718e-06
1.1136346e-05
1.057742e-05
6.8836527e-06
8.0885238e-06
6.6567339e-06
7.7661536e-06
8.4625861e-06
8.8520059e-06
9.1634274e-06
8.61314e-06
8.3465988e-06
8.1036153e-06
7.9625638e-06
7.8834082e-06
7.8603519e-06
7.8898946e-06
7.9640505e-06
8.0822777e-06
8.243093e-06
8.4482553e-06
8.6997985e-06
8.9984953e-06
9.3495763e-06
9.7586446e-06
1.0231613e-05
1.0777664e-05
1.1406747e-05
1.2133025e-05
1.2908353e-05
1.3872366e-05
1.4993987e-05
1.6300876e-05
1.78303e-05
1.9627208e-05
2.1747954e-05
2.4262257e-05
2.7256382e-05
3.0835591e-05
3.512958e-05
4.0615111e-05
4.6912291e-05
5.4531533e-05
6.3774414e-05
7.5015465e-05
8.8724624e-05
0.00010545127
0.00012588818
0.00015089907
0.00018320388
0.00022103006
0.00026745039
0.00032447164
0.00039458261
0.00048085854
0.00058710312
0.00071803997
0.0008795521
0.0010789731
0.0011819115
0.0011815809
0.0011811841
0.0011807174
0.0011801725
0.0011795369
0.0011787947
0.0011779298
0.0011769301
0.0011757879
0.0011745236
0.0011732714
0.001172285
0.0011714663
0.001170766
0.0011701367
0.0011694697
0.0011687157
0.0011682111
0.001167756
1.834561e-07
9.6990784e-06
8.7967121e-06
9.0157384e-06
6.1707006e-06
7.1734711e-06
6.1166426e-06
7.0083355e-06
7.87651e-06
7.8647884e-06
7.8687906e-06
7.4001127e-06
7.1833677e-06
7.0056042e-06
6.9078783e-06
6.8639917e-06
6.8688481e-06
6.9177299e-06
7.0073109e-06
7.137351e-06
7.3063791e-06
7.5166208e-06
7.7710764e-06
8.0710622e-06
8.4219589e-06
8.7918639e-06
9.2550313e-06
9.7909515e-06
1.0409444e-05
1.11242e-05
1.1951696e-05
1.2913342e-05
1.4033321e-05
1.533944e-05
1.6869422e-05
1.8668814e-05
2.0794831e-05
2.3318321e-05
2.6327517e-05
2.9930193e-05
3.4259438e-05
3.9481586e-05
4.5800486e-05
5.3460676e-05
6.2769308e-05
7.4752424e-05
8.8702753e-05
0.00010574436
0.00012658323
0.00015211073
0.00018341607
0.00022393176
0.00027143595
0.00032981387
0.00040162013
0.00049001264
0.00059889283
0.00073310171
0.0008986583
0.0011030566
0.0011826301
0.0011821567
0.0011816214
0.0011810238
0.0011803563
0.0011796073
0.001178761
0.0011777997
0.0011767114
0.0011754921
0.0011741555
0.0011730097
0.0011720872
0.0011713195
0.0011706607
0.0011700726
0.001169452
0.0011687122
0.0011681599
0.00116776
1.6946434e-07
9.6274593e-06
7.0080271e-06
7.9322871e-06
5.510121e-06
6.3562061e-06
5.6531629e-06
6.3363794e-06
7.1761717e-06
6.7437283e-06
6.7008316e-06
6.340635e-06
6.1698641e-06
6.0452189e-06
5.9849193e-06
5.9715236e-06
6.0003301e-06
6.0688133e-06
6.1738324e-06
6.3161129e-06
6.4951374e-06
6.7132728e-06
6.9445756e-06
7.2435668e-06
7.5934138e-06
7.9990973e-06
8.4688634e-06
9.0115506e-06
9.6372144e-06
1.0359782e-05
1.1195924e-05
1.2166837e-05
1.329818e-05
1.4618253e-05
1.6165534e-05
1.7986604e-05
2.0140156e-05
2.2698754e-05
2.5753411e-05
2.9415578e-05
3.3821964e-05
3.9142954e-05
4.5593178e-05
5.342371e-05
6.2951753e-05
7.4571888e-05
8.877435e-05
0.00010615191
0.00012855702
0.00015482236
0.00018705211
0.0002266381
0.00027792351
0.00033813962
0.00041222251
0.00050343639
0.00061580826
0.00075433029
0.00092520147
0.0011361127
0.001183341
0.0011827274
0.0011820578
0.0011813329
0.0011805459
0.0011796862
0.0011787389
0.0011776857
0.0011765118
0.0011752297
0.0011738994
0.0011728343
0.0011719733
0.0011712564
0.0011706405
0.0011700868
0.0011695016
0.0011688001
0.0011682548
0.0011678784
1.5728435e-07
9.5011811e-06
5.6368258e-06
6.9518277e-06
4.918585e-06
5.6291032e-06
5.2616645e-06
5.6505399e-06
6.2931625e-06
5.7715634e-06
5.6781345e-06
5.4162606e-06
5.2887351e-06
5.2085526e-06
5.1815061e-06
5.1957133e-06
5.2471784e-06
5.3344823e-06
5.455552e-06
5.5905874e-06
5.7753174e-06
5.999357e-06
6.2654984e-06
6.577318e-06
6.9398729e-06
7.3585437e-06
7.8414666e-06
8.3981744e-06
9.0389706e-06
9.7779875e-06
1.0632074e-05
1.1622752e-05
1.2718643e-05
1.4052781e-05
1.561728e-05
1.7459722e-05
1.9640513e-05
2.2233988e-05
2.5333985e-05
2.9056202e-05
3.3542116e-05
3.9263244e-05
4.5903666e-05
5.3976059e-05
6.3808924e-05
7.5808631e-05
9.0489416e-05
0.00010847086
0.00013051189
0.00015900072
0.00019242396
0.00023349475
0.00028399024
0.00034942967
0.00042638221
0.00052113787
0.00063788086
0.00078178896
0.0009592919
0.0011783272
0.0011840201
0.0011832714
0.0011824741
0.0011816275
0.001180726
0.0011797601
0.0011787162
0.0011775779
0.0011763275
0.0011749803
0.0011737358
0.0011727445
0.0011719404
0.0011712742
0.0011707044
0.0011701788
0.0011696115
0.001168969
0.0011685094
0.0011681544
1.4656969e-07
9.285914e-06
4.6062616e-06
6.0766499e-06
4.3905425e-06
4.9846571e-06
4.922249e-06
4.9043481e-06
5.4033331e-06
4.907288e-06
4.7944441e-06
4.6135816e-06
4.5269181e-06
4.4851092e-06
4.4883117e-06
4.5282006e-06
4.6016328e-06
4.6894006e-06
4.8214591e-06
4.9886566e-06
5.1921824e-06
5.4339525e-06
5.7174866e-06
6.0465398e-06
6.4267681e-06
6.8638178e-06
7.3658901e-06
7.9192242e-06
8.575395e-06
9.3307723e-06
1.0202309e-05
1.1211622e-05
1.2385175e-05
1.3756247e-05
1.536458e-05
1.725943e-05
1.9504068e-05
2.2175767e-05
2.5372257e-05
2.921527e-05
3.3852974e-05
3.9472063e-05
4.6298375e-05
5.461015e-05
6.4750268e-05
7.7788348e-05
9.3069886e-05
0.00011180035
0.00013477658
0.00016298157
0.00019948333
0.00024236187
0.00029510018
0.00035998465
0.00044405419
0.00054308122
0.00066509036
0.00081548047
0.0010009639
0.001185498
0.0011846454
0.0011837698
0.0011828534
0.0011818926
0.0011808833
0.0011798173
0.001178682
0.0011774644
0.0011761578
0.0011747899
0.0011736583
0.0011727357
0.0011719843
0.0011713677
0.0011708472
0.0011703476
0.0011697805
0.0011692
0.0011688868
0.0011685483
1.3724796e-07
8.983903e-06
3.9595738e-06
5.299582e-06
3.9215647e-06
4.4148087e-06
4.3831031e-06
4.2304948e-06
4.5458654e-06
4.1450831e-06
4.0388725e-06
3.9226322e-06
3.8742732e-06
3.8665776e-06
3.8978766e-06
3.9477871e-06
4.0360806e-06
4.1582855e-06
4.3137165e-06
4.5028229e-06
4.7274275e-06
4.989969e-06
5.2943908e-06
5.6447342e-06
6.0334198e-06
6.4891726e-06
7.0105002e-06
7.6069254e-06
8.2904369e-06
9.0753413e-06
9.9790887e-06
1.1024243e-05
1.2238431e-05
1.3656286e-05
1.5320382e-05
1.7281893e-05
1.9607601e-05
2.237856e-05
2.5696684e-05
2.9691126e-05
3.451619e-05
4.0368216e-05
4.7488004e-05
5.6166569e-05
6.6766497e-05
7.9732732e-05
9.6462067e-05
0.00011608602
0.000140168
0.00016975181
0.00020609503
0.00025315868
0.00030852405
0.00037666344
0.00046053753
0.00056915634
0.000697328
0.00085530431
0.0010501224
0.0011861637
0.0011851988
0.0011842075
0.0011831819
0.0011821164
0.0011810071
0.0011798483
0.0011786292
0.0011773382
0.0011759863
0.0011746989
0.0011736576
0.0011728016
0.0011720996
0.0011715303
0.0011710597
0.0011705887
0.0011700151
0.0011694811
0.0011693144
0.0011690558
1.293587e-07
8.1070271e-06
3.4924455e-06
4.6054771e-06
3.5063729e-06
3.7455922e-06
3.9082319e-06
3.6133331e-06
3.7693577e-06
3.4836196e-06
3.4003e-06
3.3355501e-06
3.3225454e-06
3.3460537e-06
3.3869574e-06
3.4705461e-06
3.5868494e-06
3.7346768e-06
3.9142693e-06
4.1268222e-06
4.374716e-06
4.6606659e-06
4.9794991e-06
5.3512421e-06
5.7750457e-06
6.2575865e-06
6.8069081e-06
7.4329021e-06
8.1478389e-06
8.9669708e-06
9.9083514e-06
1.0995563e-05
1.2257553e-05
1.3730761e-05
1.5394245e-05
1.7417869e-05
1.981939e-05
2.2684221e-05
2.6276009e-05
3.0450142e-05
3.5497691e-05
4.1624567e-05
4.9087844e-05
5.8194446e-05
6.9325787e-05
8.2954096e-05
9.9658803e-05
0.00012015111
0.000146603
0.0001777627
0.0002160585
0.00026314802
0.00032411611
0.00039596334
0.00048441849
0.00059914228
0.00073434944
0.00090100087
0.0011064955
0.0011867381
0.0011856685
0.001184573
0.0011834493
0.0011822898
0.0011810899
0.001179846
0.0011785519
0.0011772035
0.0011758318
0.0011746828
0.0011737263
0.0011729338
0.0011722803
0.0011717554
0.0011713299
0.0011708905
0.0011703249
0.0011698399
0.0011698088
0.0011697494
1.2314901e-07
5.9132154e-06
3.0944093e-06
3.9772191e-06
3.148255e-06
3.1274964e-06
3.4337787e-06
3.053679e-06
3.1017053e-06
2.9190173e-06
2.8667286e-06
2.8446073e-06
2.8558601e-06
2.9004053e-06
2.9815585e-06
3.0948816e-06
3.2383363e-06
3.4117949e-06
3.6162879e-06
3.8534707e-06
4.1201843e-06
4.4291946e-06
4.7806712e-06
5.1793674e-06
5.6309767e-06
6.1424208e-06
6.7221338e-06
7.3804184e-06
8.1299613e-06
8.9670052e-06
9.9436252e-06
1.1069724e-05
1.2375481e-05
1.3898709e-05
1.5686696e-05
1.7798547e-05
2.0307326e-05
2.3304469e-05
2.6903403e-05
3.1244232e-05
3.6500887e-05
4.3196421e-05
5.1047633e-05
6.063771e-05
7.2368153e-05
8.6738111e-05
0.0001043616
0.00012599457
0.00015396697
0.00018688191
0.00022735122
0.00027712516
0.00034165476
0.0004176247
0.00051118193
0.00062643469
0.00077573093
0.00095209109
0.0011695505
0.0011872148
0.0011860479
0.0011848598
0.0011836491
0.0011824073
0.0011811279
0.0011798079
0.0011784468
0.0011770586
0.0011757749
0.0011747281
0.0011738537
0.0011731223
0.0011725183
0.0011720365
0.0011716474
0.001171238
0.001170704
0.0011702832
0.0011703606
0.0011704152
1.1827975e-07
4.425494e-06
2.7381422e-06
3.3960072e-06
2.691481e-06
2.6080112e-06
2.9330959e-06
2.5551921e-06
2.5467738e-06
2.4453216e-06
2.4281054e-06
2.4354761e-06
2.4795477e-06
2.5598788e-06
2.6719644e-06
2.8132076e-06
2.9828792e-06
3.1815865e-06
3.407751e-06
3.6684058e-06
3.9647484e-06
4.3001137e-06
4.6785693e-06
5.1050723e-06
5.5856126e-06
6.1274209e-06
6.739287e-06
7.4208071e-06
8.2031318e-06
9.0949538e-06
1.0116685e-05
1.1293683e-05
1.265791e-05
1.4249497e-05
1.6118743e-05
1.8328321e-05
2.0956104e-05
2.4098949e-05
2.7877329e-05
3.2440688e-05
3.7974166e-05
4.4705996e-05
5.331208e-05
6.3431851e-05
7.5818553e-05
9.1000315e-05
0.0001096274
0.00013250195
0.00016061317
0.00019693144
0.00023976197
0.00029245539
0.00035731283
0.00044127608
0.00054037996
0.00066249398
0.00082082719
0.0010078163
0.0011888537
0.0011875912
0.001186336
0.0011850664
0.0011837788
0.0011824662
0.0011811198
0.0011797354
0.0011783244
0.0011769307
0.0011757818
0.0011748269
0.0011740287
0.0011733562
0.0011728027
0.0011723647
0.0011720034
0.001171615
0.0011711303
0.0011707963
0.0011709542
0.001171051
1.1313041e-07
3.9400394e-06
2.3590548e-06
2.8584364e-06
2.3188816e-06
2.1732752e-06
2.4163384e-06
2.1193927e-06
2.0981357e-06
2.0592732e-06
2.0727741e-06
2.1161753e-06
2.1974018e-06
2.3093393e-06
2.4492872e-06
2.6162454e-06
2.8104968e-06
3.0310419e-06
3.2834663e-06
3.5690756e-06
3.8908343e-06
4.2523433e-06
4.6579174e-06
5.1127187e-06
5.622956e-06
6.1961352e-06
6.8338134e-06
7.5590264e-06
8.3804584e-06
9.3152203e-06
1.0384842e-05
1.16162e-05
1.30431e-05
1.4708028e-05
1.6664447e-05
1.8979265e-05
2.1735523e-05
2.5036099e-05
2.9008903e-05
3.3811983e-05
3.9641483e-05
4.7078135e-05
5.5816363e-05
6.6500748e-05
7.9586743e-05
9.5632921e-05
0.00011532753
0.00013951944
0.00017082392
0.00020768064
0.00025301092
0.00030879578
0.00037747642
0.00046641267
0.00057140853
0.0007008233
0.00086872376
0.0010670671
0.0011891988
0.0011878683
0.0011865369
0.0011851964
0.0011838413
0.001182467
0.0011810666
0.0011796324
0.0011781854
0.0011768966
0.0011758399
0.0011749674
0.0011742402
0.0011736259
0.0011731202
0.0011727275
0.0011723908
0.0011720169
0.0011715814
0.001171347
0.0011715753
0.0011716751
1.0970359e-07
3.4302112e-06
2.0335534e-06
2.3116838e-06
2.0137843e-06
1.802438e-06
1.9378307e-06
1.7523065e-06
1.7485064e-06
1.7597026e-06
1.8043752e-06
1.886338e-06
1.9988003e-06
2.1377191e-06
2.3020224e-06
2.4919518e-06
2.7074157e-06
2.9520839e-06
3.2277919e-06
3.5372631e-06
3.8837593e-06
4.271101e-06
4.703771e-06
5.1870815e-06
5.7274109e-06
6.328188e-06
7.005298e-06
7.7675618e-06
8.6292792e-06
9.6084012e-06
1.0727717e-05
1.2015702e-05
1.3508193e-05
1.5250173e-05
1.7298194e-05
1.9723346e-05
2.2614458e-05
2.6080532e-05
3.0257639e-05
3.531324e-05
4.1727581e-05
4.9271648e-05
5.8483209e-05
6.9753998e-05
8.3564298e-05
0.00010050575
0.00012130619
0.00014686384
0.00017989295
0.00021883381
0.00026674259
0.00032571572
0.00039834448
0.00049236226
0.0006034534
0.00074043686
0.00091819812
0.001128353
0.0011894473
0.0011880549
0.0011866586
0.0011852581
0.0011838451
0.0011824155
0.0011809697
0.0011795164
0.0011780905
0.0011769227
0.0011759462
0.0011751398
0.0011744749
0.0011739233
0.0011734582
0.0011731084
0.0011727962
0.0011724398
0.0011720555
0.0011719156
0.0011721981
0.0011722766
1.0826848e-07
2.8981963e-06
1.7523679e-06
1.785282e-06
1.7354037e-06
1.4867423e-06
1.5484119e-06
1.4616068e-06
1.4897736e-06
1.5366154e-06
1.6201548e-06
1.7325025e-06
1.8701053e-06
2.0313714e-06
2.2165789e-06
2.4268963e-06
2.6632966e-06
2.9293024e-06
3.2270471e-06
3.5595211e-06
3.9301606e-06
4.3429286e-06
4.8024322e-06
5.3141028e-06
5.8844473e-06
6.5213886e-06
7.2347066e-06
8.0365699e-06
8.9319326e-06
9.9559864e-06
1.1125741e-05
1.2471366e-05
1.4030871e-05
1.5851962e-05
1.799433e-05
2.0616237e-05
2.3667949e-05
2.7330171e-05
3.1747858e-05
3.7099763e-05
4.3605984e-05
5.1537125e-05
6.122745e-05
7.3088397e-05
8.7626725e-05
0.00010546709
0.00012737822
0.00015565563
0.00018901278
0.00023003779
0.00028052299
0.00034268316
0.00042322663
0.0005182944
0.00063549828
0.00078009487
0.00096770142
0.0011897811
0.0011896146
0.0011881658
0.0011867137
0.0011852617
0.0011838026
0.0011823286
0.0011808368
0.0011793595
0.0011780719
0.0011769954
0.001176095
0.0011753422
0.0011747203
0.0011742343
0.001173808
0.0011734931
0.0011732055
0.0011728759
0.0011725504
0.0011724868
0.0011727935
0.00117284
1.0989352e-07
2.3672766e-06
1.5186696e-06
1.3811154e-06
1.4547793e-06
1.2232762e-06
1.2640665e-06
1.2492603e-06
1.3104857e-06
1.3916585e-06
1.5033654e-06
1.6386453e-06
1.7961835e-06
1.9761091e-06
2.1796459e-06
2.4085432e-06
2.664573e-06
2.9507724e-06
3.2696845e-06
3.6244318e-06
4.0185518e-06
4.4561002e-06
4.9417851e-06
5.4811574e-06
6.0808751e-06
6.7490594e-06
7.4957709e-06
8.3336039e-06
9.2784248e-06
1.0350306e-05
1.1574625e-05
1.2983519e-05
1.4617478e-05
1.6527394e-05
1.8776954e-05
2.1445571e-05
2.4632013e-05
2.8459107e-05
3.307878e-05
3.8679018e-05
4.5491923e-05
5.3802922e-05
6.3961e-05
7.6398445e-05
9.1646239e-05
0.0001112726
0.00013443013
0.00016288217
0.00019786328
0.00024089872
0.00029387118
0.00036247945
0.0004434528
0.00054325915
0.00066637069
0.00082629454
0.0010154016
0.0011912378
0.0011897179
0.0011882203
0.0011867212
0.0011852223
0.0011837221
0.0011822207
0.0011807227
0.0011792668
0.0011780902
0.0011770991
0.0011762719
0.0011755788
0.0011749997
0.0011745281
0.0011741623
0.0011738716
0.0011736058
0.0011733103
0.001173051
0.0011730498
0.0011733559
0.0011733752
1.1579679e-07
1.8729475e-06
1.3310844e-06
1.0866263e-06
1.3017185e-06
1.0037442e-06
1.0709229e-06
1.1083187e-06
1.1960637e-06
1.3043825e-06
1.4364929e-06
1.5893608e-06
1.7633915e-06
1.9597249e-06
2.1800754e-06
2.426451e-06
2.7011365e-06
3.0065016e-06
3.3456497e-06
3.7216728e-06
4.1381832e-06
4.599321e-06
5.1098973e-06
5.6755923e-06
6.3032304e-06
7.0011505e-06
7.7797056e-06
8.651942e-06
9.6343479e-06
1.0747875e-05
1.2019038e-05
1.3481501e-05
1.5177715e-05
1.7161068e-05
1.9498382e-05
2.2273003e-05
2.558849e-05
2.9573157e-05
3.4385631e-05
4.0221703e-05
4.7645885e-05
5.6380093e-05
6.7054648e-05
8.0122844e-05
9.6141797e-05
0.00011579776
0.00013993684
0.00016960261
0.00020607931
0.00025330552
0.00030897151
0.00037751695
0.00046198074
0.00056613682
0.00070145464
0.00086139026
0.0010590514
0.001191319
0.0011897686
0.0011882359
0.0011867031
0.0011851677
0.0011836265
0.0011820842
0.0011805736
0.0011792455
0.0011781404
0.0011772185
0.0011764503
0.0011758082
0.0011752812
0.0011748404
0.0011745064
0.0011742373
0.0011739891
0.0011737298
0.001173537
0.0011735893
0.0011738774
0.0011738556
1.2671118e-07
1.4984574e-06
1.1725116e-06
9.401623e-07
9.5458657e-07
8.7994527e-07
9.424121e-07
1.0220503e-06
1.1299752e-06
1.2572646e-06
1.404731e-06
1.5721733e-06
1.7608158e-06
1.9721801e-06
2.2081228e-06
2.4707171e-06
2.7622829e-06
3.085407e-06
3.442989e-06
3.8382951e-06
4.2750363e-06
4.7574744e-06
5.2905712e-06
5.8802012e-06
6.5334455e-06
7.2564e-06
8.0635514e-06
8.9667446e-06
9.9920152e-06
1.1147186e-05
1.2466101e-05
1.3984085e-05
1.5745649e-05
1.780669e-05
2.0237118e-05
2.3124003e-05
2.6575439e-05
3.0725257e-05
3.573878e-05
4.1819947e-05
4.9220086e-05
5.8248738e-05
6.9286806e-05
8.2800917e-05
9.9367799e-05
0.00011969698
0.00014595095
0.00017687022
0.00021487891
0.00026163563
0.00031919142
0.0003900901
0.00047748768
0.00059087114
0.00072496407
0.00089064545
0.00109558
0.0011913671
0.0011897873
0.0011882249
0.0011866686
0.001185115
0.0011835604
0.0011820101
0.0011805081
0.001179271
0.0011782274
0.001177357
0.0011766317
0.0011760313
0.0011755627
0.0011751377
0.0011748316
0.0011745796
0.0011743481
0.0011741239
0.0011739878
0.0011740776
0.0011743455
0.0011743049
1.4862247e-07
1.5080281e-06
1.0120941e-06
7.1815221e-07
7.7906989e-07
7.8605162e-07
8.6976399e-07
9.7179519e-07
1.0958009e-06
1.2375456e-06
1.3982043e-06
1.5786829e-06
1.7804817e-06
2.0052335e-06
2.2548234e-06
2.531353e-06
2.8371763e-06
3.1749289e-06
3.5475709e-06
3.9584399e-06
4.4113238e-06
4.9105649e-06
5.461208e-06
6.0692139e-06
6.7417613e-06
7.4876603e-06
8.3179002e-06
9.24635e-06
1.0290646e-05
1.1473248e-05
1.2822709e-05
1.4375266e-05
1.617663e-05
1.8284229e-05
2.0769852e-05
2.3722872e-05
2.7254176e-05
3.150092e-05
3.6632387e-05
4.2857163e-05
5.0432124e-05
6.0100996e-05
7.1485987e-05
8.542032e-05
0.00010249769
0.00012344816
0.00014917253
0.00018078281
0.0002196532
0.00026748159
0.00032637551
0.00040263123
0.00049277299
0.00060399816
0.00074138211
0.00091127099
0.0011216036
0.0011914258
0.0011898151
0.0011882204
0.0011866353
0.0011850574
0.001183487
0.0011819413
0.0011805109
0.001179336
0.0011783455
0.0011775185
0.0011768281
0.0011762584
0.0011757902
0.0011754197
0.0011751273
0.0011748904
0.001174677
0.0011744861
0.001174388
0.0011744818
0.0011747091
0.0011746779
1.4494845e-07
9.2254473e-07
8.2871179e-07
6.1134609e-07
6.6874041e-07
7.2903123e-07
8.3098952e-07
9.495887e-07
1.0864942e-06
1.240694e-06
1.4134397e-06
1.6059241e-06
1.8196762e-06
2.0563971e-06
2.318013e-06
2.6066833e-06
2.924829e-06
3.2751213e-06
3.660657e-06
4.0848321e-06
4.5515182e-06
5.0651417e-06
5.6308343e-06
6.2546473e-06
6.9438595e-06
7.7073978e-06
8.5563965e-06
9.5049197e-06
1.0579503e-05
1.1789577e-05
1.3170219e-05
1.4758587e-05
1.6601488e-05
1.8757675e-05
2.1300518e-05
2.432131e-05
2.7933238e-05
3.2276267e-05
3.7523126e-05
4.3886647e-05
5.1628776e-05
6.1071564e-05
7.2610701e-05
8.6734399e-05
0.00010404308
0.00012527715
0.00015135031
0.00018500062
0.00022469266
0.00027352353
0.00033364748
0.00040773682
0.00049911743
0.0006119372
0.00075138165
0.00092394975