/*--------------------------------*- C++ -*----------------------------------*\
| =========                 |                                                 |
| \\      /  F ield         | OpenFOAM: The Open Source CFD Toolbox           |
|  \\    /   O peration     | Version:  2512                                  |
|   \\  /    A nd           | Website:  www.openfoam.com                      |
|    \\/     M anipulation  |                                                 |
\*---------------------------------------------------------------------------*/
FoamFile
{
    version     2.0;
    format      ascii;
    arch        "LSB;label=32;scalar=64";
    class       volScalarField;
    location    "0.145";
    object      k;
}
// * * * * * * * * * * * * * * * * * * * * * * * * * * * * * * * * * * * * * //

dimensions      [0 2 -2 0 0 0 0];

internalField   nonuniform List<scalar> 
16000
(
0.061495237
0.021395681
0.022419887
0.016518748
0.013994863
0.01267157
0.011882486
0.01140881
0.011092264
0.01087725
0.010718791
0.010600756
0.010508527
0.010435492
0.01037671
0.010329236
0.010290425
0.010258526
0.010232544
0.01021106
0.010193643
0.010179351
0.010167886
0.01015876
0.010151631
0.010146205
0.010142296
0.01013972
0.010138341
0.010138028
0.010138657
0.010140124
0.010142345
0.010145252
0.010148783
0.010152879
0.010157482
0.010162534
0.010167977
0.010173756
0.010179806
0.01018606
0.010192453
0.010198916
0.010205378
0.010211765
0.010218019
0.010224092
0.010229943
0.010235534
0.01024083
0.01024579
0.010250371
0.01025453
0.010258225
0.010261417
0.010264065
0.010266123
0.010267539
0.01026825
0.010268178
0.010267223
0.010265281
0.010262214
0.010257855
0.010252042
0.010244651
0.010235584
0.010224685
0.010211663
0.010195999
0.01017672
0.01015325
0.010130217
0.010111256
0.010094933
0.010081136
0.010082468
0.010068022
0.010092422
0.054319619
0.020041149
0.020964148
0.015973284
0.013652246
0.012471475
0.011721145
0.011296828
0.010992133
0.010794619
0.010646135
0.010536842
0.01045099
0.010383421
0.010329084
0.010285454
0.010250005
0.010220965
0.010197603
0.0101784
0.010163105
0.010150724
0.010141025
0.010133544
0.010127963
0.010123982
0.010121429
0.010120125
0.010119938
0.010120746
0.010122429
0.010124882
0.010128021
0.010131774
0.01013608
0.010140879
0.010146116
0.010151731
0.010157667
0.01016387
0.01017028
0.01017683
0.010183457
0.010190097
0.010196683
0.010203142
0.010209416
0.010215457
0.01022123
0.0102267
0.010231837
0.010236607
0.010240973
0.010244895
0.010248336
0.010251259
0.010253628
0.010255401
0.010256528
0.010256953
0.010256603
0.010255387
0.010253207
0.010249933
0.010245397
0.010239425
0.01023188
0.010222664
0.010211635
0.010198523
0.010182888
0.010163886
0.010140912
0.010119065
0.010101138
0.010085496
0.010073537
0.010070601
0.010066643
0.010092644
0.049236469
0.019072808
0.019624158
0.015412105
0.013301552
0.012245882
0.011553776
0.011170721
0.01089002
0.010710588
0.010573217
0.010473093
0.010394117
0.010332309
0.010282738
0.010243181
0.01021133
0.01018534
0.010164781
0.010148012
0.010134981
0.010124639
0.010116821
0.010111084
0.010107139
0.010104686
0.010103564
0.0101036
0.010104668
0.01010665
0.010109431
0.010112907
0.010116991
0.010121612
0.010126704
0.010132211
0.010138073
0.010144233
0.010150634
0.010157221
0.010163938
0.010170721
0.010177508
0.01018424
0.010190854
0.010197282
0.010203466
0.010209364
0.01021494
0.010220167
0.010225021
0.010229474
0.010233495
0.010237051
0.010240107
0.010242632
0.010244594
0.010245955
0.010246668
0.010246679
0.010245923
0.010244318
0.01024177
0.010238157
0.010233314
0.010227058
0.01021924
0.01020976
0.010198489
0.010185168
0.010169406
0.010150522
0.010127954
0.01010745
0.010090661
0.01007616
0.010065132
0.010060595
0.010061802
0.010085149
0.044980328
0.018418697
0.018472488
0.014909229
0.012984122
0.012042221
0.011400917
0.011056621
0.010796459
0.010633465
0.010506691
0.010415036
0.010342619
0.010286262
0.010241243
0.010205567
0.010177191
0.010154126
0.010136289
0.010121876
0.01011105
0.0101027
0.010096723
0.01009269
0.010090349
0.010089396
0.010089677
0.010091026
0.010093318
0.010096441
0.010100282
0.010104737
0.010109719
0.01011515
0.010120967
0.010127108
0.010133517
0.010140134
0.010146904
0.010153772
0.010160686
0.010167586
0.010174413
0.010181111
0.010187625
0.010193892
0.010199858
0.010205482
0.010210734
0.010215593
0.010220039
0.010224054
0.010227614
0.01023069
0.010233252
0.010235275
0.010236728
0.010237579
0.010237786
0.010237296
0.010236049
0.010233971
0.010230975
0.010226944
0.010221718
0.01021511
0.010206955
0.010197144
0.010185567
0.010171977
0.010156014
0.010137197
0.010114963
0.010095818
0.010080243
0.010066943
0.010056472
0.010051473
0.010056457
0.01007296
0.040298529
0.01802789
0.017533633
0.014443903
0.012688446
0.011849778
0.011257578
0.010948994
0.010709249
0.010561667
0.010445295
0.01036172
0.010295724
0.010244662
0.010204111
0.010172221
0.010147285
0.010127097
0.010111968
0.010099897
0.010091271
0.010084918
0.010080797
0.010078472
0.010077736
0.010078292
0.010079976
0.010082639
0.010086149
0.010090398
0.010095276
0.010100679
0.010106515
0.010112705
0.010119182
0.010125884
0.010132753
0.010139732
0.010146765
0.0101538
0.010160787
0.010167673
0.010174403
0.010180928
0.010187198
0.010193159
0.010198761
0.010203968
0.010208756
0.010213108
0.010217012
0.010220458
0.010223429
0.010225902
0.010227854
0.01022926
0.010230096
0.010230334
0.010229934
0.010228847
0.010227017
0.010224374
0.01022084
0.010216304
0.010210611
0.010203571
0.010195005
0.010184792
0.010172837
0.010158913
0.010142661
0.010123839
0.010102107
0.010084338
0.010070031
0.01005793
0.010047992
0.01004313
0.010050365
0.010061839
0.037906809
0.017866302
0.016836459
0.014017454
0.012416687
0.011670796
0.011125171
0.010849356
0.010629242
0.01049585
0.010389579
0.010313619
0.010253838
0.010207881
0.010171681
0.010143466
0.010121921
0.010104558
0.010092116
0.010082382
0.010075944
0.010071599
0.01006937
0.010068743
0.010069596
0.010071671
0.010074741
0.010078702
0.010083406
0.010088747
0.010094616
0.010100907
0.010107526
0.01011439
0.010121432
0.010128585
0.010135794
0.010143003
0.010150159
0.010157212
0.010164118
0.01017083
0.010177302
0.010183489
0.010189353
0.010194847
0.010199929
0.010204567
0.010208744
0.01021245
0.010215679
0.010218429
0.010220689
0.010222446
0.010223678
0.010224366
0.010224488
0.010224021
0.010222927
0.010221162
0.010218668
0.010215384
0.010211237
0.010206123
0.010199892
0.010192355
0.010183319
0.010172647
0.010160253
0.010145946
0.010129345
0.010110416
0.010089464
0.010073093
0.010060092
0.010049182
0.010039869
0.010035307
0.010043154
0.010051211
0.033915037
0.017877346
0.016334449
0.013626217
0.012166212
0.011504564
0.011003342
0.010757441
0.010556262
0.010435882
0.010339396
0.010270673
0.010216934
0.010175951
0.010144038
0.010119431
0.010101269
0.010086725
0.010076961
0.010069625
0.010065355
0.010063083
0.010062884
0.010063906
0.01006628
0.010069842
0.010074321
0.010079557
0.01008542
0.010091801
0.010098592
0.010105687
0.010112989
0.010120413
0.010127888
0.010135351
0.010142746
0.010150019
0.010157125
0.010164018
0.01017066
0.010177014
0.010183043
0.01018871
0.010193988
0.010198842
0.010203238
0.010207151
0.010210568
0.010213487
0.010215909
0.010217838
0.010219272
0.010220203
0.010220615
0.01022049
0.01021981
0.010218553
0.010216688
0.010214168
0.010210942
0.010206948
0.01020212
0.010196361
0.010189529
0.010181436
0.010171879
0.0101607
0.010147812
0.010133081
0.010116107
0.010096924
0.010077203
0.010062236
0.010050546
0.010040824
0.010032265
0.010028085
0.010035455
0.010041389
0.031175392
0.017991996
0.015912851
0.013267837
0.011935382
0.011350922
0.010891532
0.010673147
0.010489956
0.010381705
0.010294745
0.010232992
0.010185177
0.010149093
0.010121446
0.010100417
0.010085633
0.010073955
0.010066798
0.01006208
0.010059831
0.010059855
0.010061108
0.010064069
0.010068175
0.010073223
0.010079055
0.010085516
0.010092471
0.010099806
0.010107414
0.010115187
0.010123028
0.010130852
0.010138587
0.010146172
0.010153554
0.010160687
0.010167531
0.01017405
0.010180215
0.010186001
0.010191381
0.010196332
0.010200835
0.010204869
0.01020841
0.01021144
0.010213953
0.010215952
0.010217444
0.010218441
0.010218945
0.010218954
0.010218458
0.010217439
0.010215882
0.010213766
0.010211063
0.010207729
0.010203711
0.010198951
0.010193388
0.010186931
0.010179445
0.010170747
0.01016063
0.01014891
0.010135488
0.010120289
0.010102978
0.010083404
0.010065421
0.010051867
0.01004147
0.010032934
0.010025251
0.010021451
0.010027976
0.010032007
0.029499889
0.01814279
0.015392086
0.01293923
0.011722918
0.011209012
0.010789278
0.010596029
0.010430661
0.010333709
0.010255975
0.010200973
0.010158965
0.010127717
0.010104327
0.010086872
0.010075378
0.010066737
0.010061819
0.010059882
0.010058412
0.010061897
0.010065344
0.010070003
0.010075681
0.010082172
0.010089297
0.010096897
0.010104832
0.010112987
0.010121254
0.010129527
0.01013771
0.010145719
0.010153486
0.010160954
0.010168079
0.010174823
0.010181157
0.010187058
0.010192509
0.010197496
0.01020201
0.010206038
0.010209574
0.010212611
0.010215135
0.010217135
0.010218611
0.01021957
0.010220025
0.010219991
0.010219478
0.010218487
0.01021701
0.010215033
0.010212539
0.01020951
0.010205918
0.010201722
0.010196868
0.010191299
0.010184958
0.01017776
0.010169578
0.010160238
0.010149529
0.01013725
0.010123269
0.010107553
0.010089988
0.010070341
0.010054227
0.01004209
0.010032951
0.010025588
0.010018908
0.010015455
0.01002071
0.010023044
0.026924681
0.018270712
0.014720365
0.012637745
0.011529024
0.011079779
0.010697907
0.010527037
0.010378937
0.010292329
0.01022351
0.010175077
0.010138767
0.010112309
0.010093174
0.010079349
0.010070696
0.010065664
0.010061433
0.010064104
0.010066659
0.010070289
0.010075613
0.010081995
0.01008921
0.010097055
0.010105353
0.010113945
0.010122688
0.010131463
0.010140163
0.010148689
0.010156949
0.010164865
0.010172376
0.010179437
0.010186013
0.01019208
0.010197625
0.01020264
0.010207122
0.010211074
0.010214501
0.010217405
0.010219793
0.010221667
0.010223027
0.010223868
0.010224193
0.010224014
0.010223346
0.010222206
0.010220608
0.010218558
0.010216048
0.010213067
0.010209595
0.010205614
0.010201099
0.010196008
0.010190288
0.010183882
0.010176734
0.010168766
0.01015986
0.01014985
0.010138527
0.010125679
0.010111146
0.010094873
0.010077065
0.010058085
0.010043715
0.010032985
0.010025055
0.010018835
0.01001326
0.010010172
0.01001392
0.010014983
0.025127688
0.018357652
0.014170559
0.012361759
0.011354398
0.010962862
0.010617422
0.010466425
0.010334808
0.010257939
0.010197748
0.010155777
0.010125095
0.010103415
0.010088531
0.010078534
0.01007087
0.010071438
0.010072391
0.010074685
0.010079249
0.010085348
0.010092497
0.0101005
0.010109124
0.010118164
0.010127443
0.0101368
0.010146093
0.010155204
0.010164029
0.010172481
0.010180478
0.010187954
0.010194863
0.010201175
0.010206871
0.010211947
0.010216406
0.010220258
0.010223518
0.010226206
0.01022834
0.010229938
0.010231016
0.010231588
0.010231663
0.010231243
0.010230332
0.010228942
0.010227091
0.010224795
0.01022207
0.010218924
0.010215351
0.010211339
0.010206867
0.010201915
0.010196457
0.010190455
0.010183855
0.010176597
0.010168627
0.010159872
0.010150223
0.010139526
0.01012758
0.010114162
0.010099101
0.010082299
0.010064117
0.01004668
0.010033972
0.010024622
0.010017843
0.010012708
0.010008288
0.010005662
0.010007945
0.010008322
0.023565873
0.018431942
0.013677434
0.012111391
0.011198906
0.010858099
0.010547289
0.010414474
0.010298714
0.010231036
0.010179212
0.010143648
0.010118559
0.01010168
0.01009102
0.010085295
0.010083641
0.010084011
0.01008734
0.010092759
0.010099576
0.010107545
0.010116403
0.010125858
0.010135679
0.010145658
0.010155622
0.010165412
0.010174893
0.010183952
0.010192499
0.010200463
0.010207782
0.010214411
0.010220325
0.010225513
0.01022998
0.010233742
0.010236822
0.010239249
0.010241056
0.010242276
0.010242943
0.010243084
0.010242727
0.010241893
0.010240598
0.010238848
0.010236648
0.010234008
0.010230943
0.010227469
0.010223601
0.010219346
0.010214702
0.010209653
0.010204178
0.010198252
0.010191851
0.010184936
0.010177454
0.010169344
0.01016055
0.010151004
0.010140606
0.010129216
0.010116646
0.010102663
0.0100871
0.010069911
0.010051345
0.010036187
0.010025058
0.010017046
0.010011366
0.01000723
0.010003941
0.010001935
0.010003088
0.010002896
0.022129053
0.018432226
0.013261613
0.011885796
0.011061693
0.010765914
0.010488148
0.01037177
0.010270976
0.010212176
0.010168517
0.010139368
0.010119878
0.010107855
0.010101485
0.010099415
0.010100695
0.010104856
0.010110965
0.010118648
0.010127556
0.010137323
0.010147648
0.010158264
0.010168939
0.010179468
0.010189686
0.010199448
0.010208631
0.010217143
0.010224916
0.010231903
0.010238073
0.01024341
0.010247913
0.0102516
0.010254499
0.010256647
0.010258087
0.010258866
0.01025903
0.010258625
0.010257696
0.010256279
0.010254407
0.010252107
0.010249398
0.010246287
0.010242781
0.010238884
0.010234606
0.01022996
0.010224957
0.010219606
0.010213902
0.01020783
0.010201366
0.010194482
0.01018715
0.010179335
0.010170984
0.010162035
0.010152428
0.0101421
0.010130958
0.010118877
0.010105688
0.010091166
0.01007511
0.01005772
0.01003994
0.010026635
0.010017014
0.010010282
0.010005658
0.010002421
0.010000148
0.0099989465
0.0099994647
0.0099985561
0.020862811
0.018263096
0.012875878
0.011683546
0.010941723
0.010685991
0.010440113
0.010338481
0.010252163
0.010202082
0.010166461
0.010143776
0.010129922
0.010122805
0.01012077
0.010122592
0.010127359
0.010134345
0.010143045
0.010152966
0.010163701
0.010174912
0.010186307
0.010197624
0.010208642
0.010219169
0.010229057
0.010238189
0.010246473
0.010253849
0.010260282
0.010265761
0.010270292
0.010273893
0.010276594
0.010278438
0.010279476
0.010279765
0.010279364
0.010278333
0.010276728
0.010274604
0.010272009
0.010268986
0.010265571
0.01026179
0.010257664
0.010253203
0.010248407
0.010243278
0.010237816
0.01023203
0.010225927
0.010219511
0.010212779
0.010205715
0.010198292
0.010190479
0.010182246
0.010173555
0.01016436
0.010154596
0.010144199
0.010133107
0.010121239
0.010108477
0.010094677
0.010079659
0.010063194
0.010045519
0.010029691
0.01001809
0.01000986
0.01000433
0.010000725
0.0099982953
0.0099968331
0.0099965538
0.0099972397
0.0099959161
0.01972908
0.017813709
0.012528759
0.011503885
0.010839484
0.010618859
0.010403463
0.010315502
0.010243053
0.010201714
0.010174057
0.01015791
0.010149741
0.010147565
0.010149849
0.010155434
0.010163454
0.010173251
0.010184251
0.010195994
0.010208092
0.010220206
0.010232059
0.010243406
0.010254055
0.010263849
0.010272677
0.010280465
0.010287169
0.010292773
0.010297288
0.010300743
0.010303182
0.010304659
0.010305233
0.010304968
0.010303935
0.010302204
0.010299842
0.010296918
0.010293492
0.010289621
0.010285354
0.010280735
0.010275798
0.010270569
0.010265066
0.010259297
0.01025326
0.010246951
0.010240361
0.010233491
0.010226341
0.010218912
0.010211199
0.010203187
0.010194849
0.010186149
0.010177052
0.010167523
0.010157516
0.010146971
0.010135819
0.010123992
0.010111422
0.010098004
0.010083603
0.010068103
0.010051463
0.010034117
0.010020596
0.010010567
0.0100036
0.0099991675
0.0099965384
0.0099948637
0.0099939786
0.0099945284
0.0099960212
0.0099945425
0.018715928
0.01700308
0.01221864
0.011345881
0.010754686
0.010564881
0.010378862
0.010303781
0.010244766
0.010212286
0.010192568
0.010183015
0.010180531
0.010183243
0.010189718
0.010198858
0.01020982
0.010221949
0.010234704
0.010247626
0.010260341
0.010272541
0.01028398
0.010294464
0.010303851
0.010312043
0.010318989
0.010324674
0.010329112
0.010332342
0.01033442
0.010335416
0.010335409
0.010334481
0.010332713
0.010330183
0.010326974
0.010323159
0.01031881
0.010313994
0.010308771
0.010303193
0.010297309
0.010291155
0.010284764
0.010278158
0.010271352
0.010264348
0.010257144
0.010249727
0.010242084
0.010234203
0.010226076
0.010217699
0.010209066
0.010200161
0.01019096
0.010181424
0.010171513
0.01016119
0.010150413
0.010139128
0.010127262
0.01011474
0.0101015
0.01008746
0.010072498
0.010056524
0.010039788
0.010024228
0.010012605
0.010004055
0.0099982278
0.0099947655
0.0099930379
0.0099921086
0.0099916635
0.0099927346
0.0099951253
0.0099944044
0.017810196
0.016065382
0.011948224
0.011209513
0.010686928
0.010525091
0.010367399
0.010304818
0.010258792
0.010235306
0.010223472
0.010220474
0.010223543
0.010230907
0.01024121
0.010253398
0.010266654
0.01028034
0.01029394
0.010307033
0.010319295
0.010330476
0.010340405
0.010348964
0.010356093
0.010361775
0.01036603
0.010368913
0.010370496
0.010370869
0.010370128
0.010368376
0.010365714
0.010362241
0.010358049
0.010353224
0.010347845
0.010341986
0.010335713
0.010329087
0.010322159
0.010314976
0.010307577
0.010299995
0.010292255
0.010284374
0.010276362
0.010268219
0.010259938
0.010251502
0.010242891
0.010234083
0.010225062
0.010215814
0.010206331
0.010196597
0.01018659
0.010176275
0.010165606
0.010154541
0.010143041
0.010131059
0.010118526
0.01010536
0.01009149
0.01007686
0.010061398
0.010045114
0.010028572
0.010015581
0.010005692
0.0099985108
0.0099937232
0.0099911039
0.0099901516
0.0099899412
0.0099899863
0.0099914825
0.0099946575
0.0099959732
0.017001029
0.015299666
0.011718144
0.011095156
0.010637082
0.010500937
0.010370639
0.010320348
0.010286886
0.010272449
0.010268336
0.010271658
0.010279886
0.01029133
0.010304696
0.010318985
0.010333417
0.010347409
0.010360519
0.010372411
0.010382859
0.010391721
0.010398929
0.010404475
0.010408395
0.010410757
0.010411659
0.010411213
0.010409541
0.01040677
0.010403021
0.010398412
0.010393055
0.010387051
0.010380492
0.010373458
0.010366022
0.010358248
0.01035019
0.010341897
0.010333412
0.01032477
0.010316
0.010307127
0.010298168
0.010289134
0.010280032
0.010270858
0.0102616
0.01025224
0.010242751
0.010233106
0.010223278
0.010213245
0.010202988
0.010192495
0.010181745
0.010170708
0.01015934
0.010147592
0.010135421
0.010122787
0.010109635
0.010095881
0.010081438
0.010066261
0.010050349
0.010033951
0.010019153
0.010008067
0.0099997787
0.0099938586
0.0099900407
0.0099881638
0.0099878305
0.0099882351
0.0099888577
0.0099908098
0.0099944912
0.0099971163
0.016278672
0.014615118
0.01152398
0.011003457
0.010606225
0.010494244
0.010390335
0.010352392
0.010331035
0.010325508
0.010328679
0.010337675
0.010350157
0.010364521
0.010379567
0.010394388
0.010408316
0.010420891
0.010431813
0.010440895
0.010448055
0.010453291
0.010456662
0.01045827
0.010458243
0.010456725
0.010453868
0.010449826
0.010444748
0.010438775
0.010432036
0.010424648
0.010416716
0.010408333
0.01039958
0.010390525
0.010381225
0.010371729
0.010362079
0.010352309
0.01034245
0.010332523
0.010322548
0.01031254
0.010302507
0.010292456
0.010282386
0.010272292
0.010262161
0.010251972
0.010241697
0.010231303
0.010220755
0.010210021
0.010199075
0.010187897
0.010176469
0.010164769
0.010152758
0.010140388
0.010127607
0.010114371
0.01010064
0.010086352
0.010071407
0.010055756
0.010039573
0.010023525
0.010011114
0.010001673
0.0099947762
0.0099899977
0.0099870899
0.0099858904
0.0099860349
0.0099868714
0.0099880582
0.0099905485
0.0099944875
0.0099978313
0.015635822
0.014023758
0.011364646
0.01093531
0.010595525
0.010507421
0.010428811
0.010403355
0.010393405
0.01039612
0.010405483
0.010418723
0.010433715
0.010449012
0.010463595
0.01047676
0.010488046
0.010497201
0.010504129
0.010508832
0.010511394
0.010511954
0.010510682
0.010507769
0.010503407
0.010497785
0.010491082
0.010483463
0.01047508
0.010466066
0.01045654
0.010446604
0.010436346
0.01042584
0.010415149
0.010404323
0.010393403
0.010382422
0.010371404
0.01036037
0.010349335
0.010338312
0.010327307
0.010316326
0.01030537
0.010294438
0.010283526
0.010272626
0.010261723
0.010250796
0.010239818
0.010228754
0.010217566
0.010206215
0.010194664
0.010182882
0.010170848
0.010158543
0.010145942
0.010133005
0.010119678
0.0101059
0.010091631
0.010076844
0.010061479
0.010045457
0.010029114
0.010015031
0.010004325
0.0099963267
0.0099906091
0.0099868241
0.0099847453
0.0099841743
0.0099847197
0.0099858371
0.0099874261
0.0099904261
0.0099945987
0.0099983822
0.015066382
0.013516734
0.011241617
0.010893578
0.010606927
0.010543909
0.010489033
0.010475684
0.010475638
0.010484825
0.010498133
0.010513051
0.010527787
0.010541204
0.010552603
0.010561595
0.010568014
0.010571861
0.010573262
0.0105724
0.010569499
0.010564801
0.010558545
0.010550967
0.010542281
0.010532683
0.010522346
0.010511422
0.010500041
0.010488316
0.010476341
0.010464193
0.010451936
0.010439623
0.010427294
0.010414981
0.010402707
0.010390488
0.010378335
0.010366253
0.010354246
0.010342312
0.010330451
0.010318657
0.010306925
0.010295248
0.010283617
0.01027202
0.010260442
0.010248863
0.010237258
0.010225594
0.010213835
0.010201937
0.010189857
0.010177554
0.010164994
0.010152154
0.010139015
0.010125554
0.010111732
0.010097486
0.010082744
0.010067472
0.010051727
0.010035687
0.010019925
0.010007952
0.009998737
0.0099919533
0.0099872199
0.0099842625
0.0099828904
0.009982871
0.0099837724
0.0099851174
0.009987006
0.0099903982
0.0099947932
0.0099987811
0.014568672
0.013086554
0.011156989
0.010883107
0.010644578
0.010607456
0.010573528
0.010570417
0.010577242
0.010589534
0.01060315
0.010616074
0.010627042
0.010635389
0.010640841
0.010643378
0.010643138
0.010640355
0.010635325
0.010628353
0.010619738
0.01060976
0.010598675
0.01058671
0.010574062
0.010560902
0.010547371
0.010533589
0.010519654
0.010505645
0.010491628
0.010477652
0.010463756
0.01044997
0.010436312
0.010422797
0.010409432
0.010396217
0.010383151
0.010370226
0.010357436
0.010344769
0.010332215
0.010319761
0.010307394
0.010295102
0.01028287
0.010270683
0.010258525
0.010246376
0.010234214
0.01022201
0.010209733
0.010197341
0.010184792
0.010172039
0.010159036
0.010145746
0.010132139
0.010118198
0.010103909
0.010089242
0.010074131
0.010058481
0.010042285
0.010026078
0.010012562
0.010002104
0.0099942089
0.0099884615
0.0099845543
0.0099822713
0.0099814584
0.0099818741
0.0099830819
0.0099846689
0.0099868412
0.0099904773
0.0099950139
0.0099990099
0.014147727
0.012731613
0.01111376
0.010908476
0.010735389
0.010700136
0.010682179
0.010685085
0.010693845
0.010704366
0.010713687
0.010720509
0.010724237
0.010724738
0.010722157
0.010716783
0.010708975
0.010699107
0.010687546
0.010674629
0.010660652
0.010645874
0.010630514
0.010614753
0.010598744
0.01058261
0.01056645
0.010550342
0.010534348
0.010518515
0.010502876
0.010487457
0.010472273
0.010457331
0.010442636
0.010428183
0.010413966
0.010399975
0.010386196
0.010372614
0.010359212
0.010345972
0.010332874
0.010319899
0.010307028
0.010294243
0.010281524
0.010268853
0.010256209
0.010243574
0.010230926
0.01021824
0.01020549
0.010192642
0.010179661
0.010166502
0.010153118
0.010139461
0.010125483
0.010111146
0.010096429
0.010081328
0.010065852
0.010050027
0.010033949
0.010018231
0.010006501
0.0099973751
0.0099905816
0.0099857248
0.0099825266
0.009980804
0.0099804177
0.0099811334
0.0099825616
0.0099843916
0.0099868761
0.0099906927
0.0099952658
0.0099991502
0.013814608
0.012452824
0.011116058
0.010968318
0.010842107
0.010819622
0.010809771
0.010812215
0.010816667
0.010820027
0.010820603
0.010817891
0.010811922
0.010802989
0.01079151
0.010777933
0.010762691
0.01074617
0.010728707
0.010710588
0.010692048
0.010673277
0.010654428
0.010635622
0.010616953
0.010598492
0.010580294
0.010562397
0.010544829
0.010527606
0.010510737
0.010494224
0.010478064
0.01046225
0.010446769
0.010431606
0.010416745
0.010402166
0.010387847
0.010373766
0.0103599
0.010346223
0.010332711
0.010319339
0.010306083
0.010292919
0.010279823
0.010266771
0.010253741
0.01024071
0.010227655
0.010214555
0.010201384
0.010188117
0.010174726
0.010161177
0.010147433
0.01013345
0.010119177
0.010104562
0.01008955
0.010074096
0.010058186
0.010041916
0.010025812
0.010012174
0.010001637
0.0099936212
0.009987721
0.0099836034
0.009981009
0.0099797624
0.0099797106
0.0099806216
0.009982174
0.0099841873
0.0099869567
0.0099909364
0.0099954958
0.0099992532
0.01359266
0.012252067
0.011166204
0.011068081
0.010976228
0.010955642
0.010945019
0.010939935
0.010934197
0.010926045
0.010914909
0.010900916
0.010884475
0.010866065
0.010846162
0.01082519
0.010803509
0.010781416
0.01075915
0.010736896
0.010714797
0.010692963
0.010671474
0.010650388
0.010629745
0.010609569
0.010589875
0.010570671
0.010551953
0.010533717
0.010515951
0.01049864
0.010481767
0.010465312
0.010449254
0.010433568
0.01041823
0.010403215
0.010388495
0.010374042
0.01035983
0.010345829
0.010332011
0.010318347
0.010304809
0.010291368
0.010277996
0.010264666
0.01025135
0.010238023
0.010224658
0.01021123
0.010197716
0.01018409
0.010170329
0.010156408
0.010142299
0.010127974
0.010113396
0.010098528
0.010083325
0.010067742
0.010051759
0.010035483
0.010019608
0.010007438
0.0099979126
0.0099907499
0.0099855456
0.0099820022
0.0099798842
0.0099790173
0.0099792244
0.0099802685
0.0099818852
0.0099839999
0.009986941
0.00999104
0.0099956582
0.0099992908
0.013429369
0.012129399
0.01126596
0.011194111
0.011120536
0.011094314
0.011073687
0.011055213
0.011035463
0.011013822
0.010990361
0.010965439
0.010939494
0.010912928
0.010886081
0.010859226
0.010832573
0.010806279
0.01078046
0.010755195
0.010730539
0.010706526
0.010683171
0.010660483
0.010638456
0.010617081
0.010596344
0.010576224
0.010556701
0.010537752
0.01051935
0.01050147
0.010484086
0.010467168
0.010450688
0.010434618
0.010418928
0.010403589
0.010388569
0.010373839
0.010359368
0.010345126
0.010331081
0.010317204
0.010303463
0.010289827
0.010276265
0.010262747
0.010249242
0.010235719
0.010222149
0.010208502
0.010194751
0.010180867
0.010166825
0.0101526
0.010138169
0.010123506
0.010108589
0.010093392
0.01007789
0.010062064
0.010045948
0.010029826
0.010015097
0.010003905
0.009995197
0.0099886875
0.0099840107
0.0099808925
0.0099791156
0.0099785064
0.0099788878
0.009980021
0.0099816917
0.0099838626
0.0099868062
0.0099907581
0.0099952381
0.0099989713
0.01335752
0.012083271
0.011416366
0.011329531
0.011258727
0.011217513
0.011181219
0.011146953
0.011112917
0.011078842
0.011044826
0.011011074
0.010977795
0.010945162
0.0109133
0.010882296
0.010852201
0.010823042
0.010794829
0.010767553
0.0107412
0.010715744
0.010691159
0.010667411
0.010644468
0.010622295
0.010600857
0.010580119
0.010560046
0.010540604
0.010521758
0.010503475
0.010485722
0.010468466
0.010451674
0.010435314
0.010419355
0.010403763
0.010388509
0.010373559
0.010358883
0.010344449
0.010330226
0.010316182
0.010302286
0.010288507
0.010274813
0.010261171
0.010247549
0.010233915
0.010220235
0.010206477
0.010192609
0.010178597
0.010164412
0.010150022
0.010135399
0.010120517
0.010105348
0.010089874
0.010074078
0.010057968
0.010041645
0.010025596
0.010011964
0.010001452
0.0099933525
0.0099873278
0.009983043
0.0099802393
0.0099787184
0.009978247
0.009978735
0.0099799219
0.0099816649
0.0099839315
0.00998689
0.0099906511
0.0099948655
0.0099986245
0.013348511
0.012055885
0.011556009
0.011450519
0.011368498
0.01131001
0.011258007
0.011210098
0.011164746
0.011121451
0.011079984
0.011040232
0.011002118
0.010965576
0.010930541
0.010896948
0.010864729
0.010833816
0.010804144
0.010775647
0.010748264
0.010721932
0.010696596
0.010672199
0.01064869
0.010626019
0.010604139
0.010583004
0.010562571
0.010542801
0.010523653
0.010505089
0.010487074
0.010469571
0.010452546
0.010435965
0.010419795
0.010404003
0.010388558
0.010373426
0.010358577
0.01034398
0.010329604
0.010315417
0.010301389
0.010287489
0.010273687
0.01025995
0.010246248
0.010232547
0.010218816
0.01020502
0.010191126
0.0101771
0.010162907
0.010148513
0.010133882
0.01011898
0.010103772
0.010088226
0.010072316
0.010056046
0.010039537
0.010023404
0.010010306
0.010000149
0.009992372
0.0099866209
0.009982569
0.0099799582
0.0099785846
0.0099781729
0.0099787495
0.0099799611
0.0099817581
0.0099840917
0.0099870363
0.0099906128
0.0099945763
0.009998357
0.013408116
0.01207484
0.011655679
0.011533842
0.011439222
0.011367036
0.011303968
0.011247183
0.011194855
0.011146096
0.011100343
0.011057213
0.011016421
0.01097774
0.010940983
0.010905993
0.01087263
0.010840773
0.010810314
0.010781155
0.01075321
0.010726396
0.010700642
0.01067588
0.010652046
0.010629084
0.01060694
0.010585562
0.010564905
0.010544924
0.010525577
0.010506823
0.010488624
0.010470944
0.010453746
0.010436997
0.010420662
0.010404708
0.010389103
0.010373816
0.010358814
0.010344068
0.010329547
0.01031522
0.010301059
0.010287033
0.010273112
0.010259267
0.010245467
0.010231683
0.010217883
0.010204036
0.010190111
0.010176077
0.0101619
0.01014755
0.010132994
0.010118199
0.010103133
0.010087766
0.010072071
0.010056048
0.010039797
0.010023844
0.010010505
0.010000257
0.0099924075
0.0099866216
0.0099825622
0.0099799656
0.0099786236
0.0099782389
0.0099787787
0.0099800148
0.0099818575
0.0099842484
0.0099871768
0.009990602
0.009994369
0.0099981803
0.013504957
0.012118475
0.011704778
0.011574084
0.011471305
0.011392966
0.011325097
0.01126481
0.011209837
0.011159086
0.011111806
0.011067495
0.011025775
0.010986356
0.010949002
0.010913519
0.010879744
0.010847535
0.010816769
0.010787338
0.010759146
0.010732106
0.01070614
0.010681176
0.01065715
0.010634002
0.010611675
0.010590118
0.010569283
0.010549125
0.0105296
0.01051067
0.010492294
0.010474435
0.010457059
0.010440129
0.010423613
0.010407478
0.01039169
0.010376219
0.010361034
0.010346104
0.010331398
0.010316887
0.010302541
0.010288331
0.010274226
0.010260199
0.010246218
0.010232255
0.010218278
0.010204257
0.01019016
0.010175958
0.010161617
0.010147107
0.010132397
0.010117453
0.010102246
0.010086746
0.01007093
0.010054803
0.010038487
0.010022601
0.010009822
0.0099998405
0.0099921894
0.0099865186
0.0099825252
0.0099799584
0.0099786111
0.0099782069
0.0099787743
0.0099799936
0.0099818519
0.0099842636
0.0099871841
0.0099905414
0.0099942218
0.0099980794
92.416883
453.86856
141.60907
12.300205
0.27201612
0.021639791
0.020643172
0.020032559
0.01934627
0.018166057
0.016942859
0.015875941
0.015023632
0.014459986
0.014060738
0.013687193
0.013320154
0.012990259
0.012711465
0.012478127
0.012280003
0.012109254
0.01196064
0.011830336
0.011715304
0.011613067
0.011521632
0.01143941
0.011365152
0.011297868
0.011236741
0.011181058