/*--------------------------------*- C++ -*----------------------------------*\
| =========                 |                                                 |
| \\      /  F ield         | OpenFOAM: The Open Source CFD Toolbox           |
|  \\    /   O peration     | Version:  2512                                  |
|   \\  /    A nd           | Website:  www.openfoam.com                      |
|    \\/     M anipulation  |                                                 |
\*---------------------------------------------------------------------------*/
FoamFile
{
    version     2.0;
    format      ascii;
    arch        "LSB;label=32;scalar=64";
    class       volScalarField;
    location    "0.145";
    object      Ma;
}
// * * * * * * * * * * * * * * * * * * * * * * * * * * * * * * * * * * * * * //

dimensions      [0 0 0 0 0 0 0];

internalField   nonuniform List<scalar> 
16000
(
0.62595033
0.74378073
0.69843482
0.72363861
0.70819167
0.71555562
0.70967983
0.71139868
0.70871165
0.70836082
0.70674206
0.70565514
0.70426144
0.70291052
0.70147004
0.69998292
0.69843557
0.6968306
0.69516664
0.69344339
0.69166051
0.68981791
0.68791572
0.68595434
0.6839345
0.68185721
0.67972387
0.67753624
0.67529651
0.67300725
0.67067149
0.66829268
0.66587469
0.66342184
0.66093884
0.65843078
0.65590312
0.65336159
0.65081218
0.64826107
0.64571455
0.64317897
0.64066062
0.63816569
0.63570021
0.63326989
0.63088016
0.62853602
0.62624203
0.62400228
0.6218203
0.61969909
0.61764108
0.61564812
0.61372147
0.61186183
0.6100693
0.60834339
0.60668309
0.60508665
0.60355173
0.60207565
0.60065535
0.59928706
0.59796617
0.59668709
0.59544331
0.59422783
0.59303371
0.59185432
0.59068264
0.58950999
0.58832609
0.5871218
0.58589309
0.58464253
0.58330073
0.58224481
0.58014134
0.58007298
0.63042173
0.74899531
0.70174874
0.72830136
0.71200558
0.71985959
0.71351382
0.71536518
0.71248728
0.71206674
0.71035984
0.70915546
0.70767096
0.70620435
0.70465506
0.70305044
0.7013833
0.69965412
0.69786233
0.69600761
0.69408992
0.69210942
0.6900666
0.68796224
0.6857975
0.6835739
0.68129339
0.67895833
0.67657154
0.67413629
0.67165632
0.66913585
0.66657953
0.66399248
0.6613802
0.65874855
0.65610372
0.65345215
0.65080046
0.64815537
0.64552362
0.64291188
0.64032668
0.63777431
0.63526072
0.6327915
0.63037175
0.62800608
0.62569855
0.62345264
0.62127122
0.61915656
0.61711035
0.61513368
0.61322706
0.61139044
0.60962323
0.60792428
0.60629197
0.60472408
0.6032178
0.60176998
0.60037727
0.59903567
0.59774047
0.59648602
0.59526573
0.59407238
0.59289878
0.5917381
0.5905833
0.58942582
0.58825527
0.5870621
0.58584041
0.58458384
0.58330502
0.58205556
0.58037953
0.57974757
0.63462263
0.75376314
0.70535321
0.73232691
0.71560264
0.72354449
0.71705389
0.71878169
0.71585657
0.71527341
0.71350109
0.71215604
0.71056751
0.70897269
0.70729819
0.70556156
0.70375859
0.70188938
0.69995365
0.69795141
0.69588291
0.69374875
0.69154982
0.68928743
0.68696328
0.6845795
0.6821387
0.679644
0.677099
0.67450782
0.6718751
0.66920599
0.66650609
0.66378146
0.66103855
0.65828413
0.65552523
0.65276906
0.65002289
0.64729399
0.64458952
0.6419164
0.63928126
0.63669034
0.63414936
0.63166354
0.62923747
0.62687513
0.6245798
0.62235415
0.62020014
0.61811911
0.61611177
0.61417827
0.61231819
0.61053059
0.60881404
0.60716664
0.60558607
0.60406951
0.60261363
0.60121485
0.59986942
0.5985731
0.59732104
0.59610756
0.59492601
0.5937691
0.59262947
0.59150016
0.59037417
0.58924322
0.58809704
0.58692544
0.58572123
0.58448297
0.5832266
0.58191434
0.58042059
0.5795499
0.63842872
0.75809227
0.70836808
0.7357893
0.71871107
0.72676515
0.72011152
0.72170698
0.71872005
0.71795909
0.71610668
0.7146061
0.71289645
0.71115824
0.70934211
0.70745772
0.70550328
0.70347869
0.70138406
0.6992197
0.69698627
0.69468477
0.69231665
0.68988377
0.68738851
0.68483376
0.68222297
0.67956016
0.67684993
0.67409744
0.67130844
0.66848917
0.66564636
0.66278718
0.65991911
0.6570499
0.65418746
0.65133974
0.64851462
0.6457198
0.64296268
0.64025026
0.63758902
0.63498489
0.6324431
0.6299682
0.62756399
0.62523351
0.62297904
0.62080215
0.61870368
0.61668384
0.61474221
0.61287784
0.61108929
0.60937465
0.60773159
0.60615744
0.60464916
0.60320335
0.60181617
0.60048363
0.59920161
0.59796569
0.59677092
0.5956116
0.59448114
0.59337221
0.59227732
0.5911894
0.59010157
0.58900589
0.58789223
0.58674963
0.58557098
0.58435887
0.58311866
0.58179982
0.58042912
0.57937485
0.64183883
0.76192831
0.71112085
0.73872531
0.72120475
0.7294116
0.72264976
0.72405009
0.72102026
0.72004727
0.71810576
0.71643218
0.71458343
0.71268682
0.71071243
0.70866462
0.70654285
0.7043471
0.70207772
0.6997354
0.69732125
0.69483685
0.69228431
0.68966628
0.68698607
0.68424757
0.68145535
0.67861462
0.67573126
0.67281174
0.66986314
0.66689304
0.66390948
0.66092085
0.65793577
0.65496299
0.65201126
0.64908919
0.64620511
0.64336694
0.64058207
0.63785728
0.6351986
0.63261128
0.63009971
0.62766743
0.6253171
0.6230505
0.62086863
0.6187717
0.61675921
0.61483005
0.61298254
0.61121453
0.60952348
0.60790646
0.60636027
0.60488143
0.60346621
0.60211068
0.60081055
0.59956143
0.59835894
0.59719848
0.59607506
0.59498305
0.59391597
0.59286655
0.59182726
0.59079095
0.58975091
0.5886996
0.58762706
0.58652201
0.58537824
0.58419915
0.58297981
0.58168332
0.58038651
0.57922261
0.64481518
0.76519478
0.71341484
0.74118214
0.72337759
0.73141568
0.72453476
0.72574703
0.72266574
0.72147434
0.71943308
0.71757602
0.71557216
0.71350414
0.71135589
0.70912867
0.70682258
0.70443794
0.70197554
0.69943668
0.69682323
0.69413765
0.69138307
0.68856329
0.68568288
0.68274711
0.67976202
0.67673434
0.67367154
0.6705817
0.66747346
0.66435594
0.66123861
0.65813114
0.65504329
0.65198473
0.64896489
0.6459928
0.64307695
0.64022514
0.63744438
0.63474077
0.63211945
0.62958458
0.62713926
0.62478561
0.62252477
0.62035696
0.61828159
0.61629729
0.61440207
0.61259335
0.61086813
0.60922302
0.60765436
0.60615827
0.60473069
0.60336742
0.60206415
0.60081645
0.59961969
0.5984692
0.5973604
0.5962886
0.59524884
0.59423564
0.59324272
0.59226294
0.59128882
0.5903132
0.58932954
0.58833073
0.58730705
0.58624742
0.58514653
0.58400607
0.58281555
0.58155829
0.58032156
0.57907462
0.64734624
0.76788434
0.71526758
0.74313753
0.72508371
0.73275622
0.72594731
0.72678124
0.72371773
0.72222863
0.72006925
0.71801669
0.71583659
0.71357765
0.71123293
0.70880279
0.70628797
0.70368957
0.70100925
0.69824933
0.6954128
0.69250341
0.68952571
0.68648505
0.68338765
0.68024057
0.67705167
0.67382959
0.67058367
0.66732386
0.66406058
0.66080458
0.6575668
0.65435814
0.65118935
0.64807078
0.64501221
0.64202269
0.63911042
0.63628255
0.63354515
0.63090312
0.62836016
0.62591879
0.62358036
0.62134512
0.61921235
0.6171804
0.61524684
0.61340861
0.61166206
0.61000317
0.60842758
0.60693071
0.60550789
0.60415435
0.60286529
0.60163594
0.60046152
0.59933724
0.59825825
0.59721972
0.59621698
0.59524534
0.59429997
0.5933756
0.59246623
0.59156501
0.59066455
0.58975776
0.58883829
0.58789936
0.5869317
0.58592501
0.58487442
0.58377814
0.58262423
0.58141829
0.58023499
0.57892721
0.64946968
0.77002342
0.71671202
0.74462853
0.72637151
0.73374824
0.72681711
0.72757159
0.72405621
0.72231972
0.72000763
0.71773262
0.71534099
0.71285873
0.71028417
0.70761805
0.70486196
0.70201804
0.69908913
0.69607889
0.69299182
0.68983337
0.68660993
0.68332885
0.67999845
0.67662798
0.67322756
0.66980806
0.666381
0.66295836
0.65955245
0.65617564
0.65284021
0.64955806
0.64634055
0.64319825
0.64014076
0.63717653
0.63431276
0.63155529
0.62890855
0.62637555
0.62395792
0.62165598
0.61946883
0.6173945
0.61543008
0.61357183
0.61181539
0.6101559
0.60858814
0.60710666
0.60570586
0.60438014
0.60312394
0.6019318
0.60079837
0.59971845
0.59868698
0.597699
0.59674955
0.5958338
0.59494711
0.59408491
0.59324257
0.59241512
0.59159695
0.59078157
0.58996182
0.58913071
0.58828204
0.58740934
0.58650398
0.58555696
0.58456309
0.58351606
0.58240649
0.58126188
0.58012973
0.57877503
0.65124528
0.77163167
0.71768546
0.74564111
0.72696218
0.73366229
0.72686649
0.72681415
0.7237544
0.72168798
0.7191738
0.71664064
0.71399559
0.71125116
0.70840812
0.70546822
0.70243406
0.69930915
0.69609791
0.6928058
0.68943937
0.68600627
0.68251531
0.67897641
0.67540052
0.67179957
0.66818634
0.66457425
0.66097716
0.6574092
0.65388444
0.65041667
0.64701911
0.64370417
0.64048315
0.63736611
0.63436161
0.63147665
0.62871653
0.6260849
0.62358371
0.62121336
0.61897277
0.61685955
0.61487018
0.61300015
0.6112442
0.60959646
0.60805067
0.60660026
0.60523856
0.60395891
0.60275471
0.60161954
0.60054721
0.59953178
0.5985676
0.59764927
0.59677161
0.59592968
0.59511861
0.59433369
0.59357047
0.59282458
0.59209167
0.59136718
0.59064596
0.58992196
0.58918839
0.58843843
0.58766595
0.58686466
0.58602697
0.58514544
0.58421366
0.58322047
0.58216273
0.58108761
0.58000456
0.57861667
0.65265867
0.77267485
0.71811427
0.74591497
0.7268318
0.73313354
0.72640304
0.7259033
0.72262562
0.72021226
0.71744699
0.71461966
0.71167844
0.70863007
0.70547675
0.70222186
0.69886969
0.6954257
0.6918966
0.68829034
0.68461626
0.68088497
0.67710841
0.67329971
0.66947308
0.66564359
0.66182701
0.65803947
0.65429723
0.65061633
0.64701224
0.6434996
0.64009182
0.63680087
0.63363702
0.63060865
0.62772216
0.62498192
0.62239031
0.61994778
0.617653
0.61550306
0.61349367
0.61161937
0.60987378
0.60824982
0.60673993
0.60533625
0.60403078
0.60281555
0.60168275
0.60062478
0.59963437
0.59870459
0.59782892
0.59700124
0.59621582
0.5954673
0.59475064
0.59406106
0.59339397
0.59274492
0.59210976
0.59148444
0.59086498
0.59024727
0.58962668
0.58899773
0.58835408
0.58768918
0.58699685
0.58627096
0.58550522
0.58469387
0.58382833
0.58289297
0.58189407
0.58089393
0.57985791
0.57845204
0.65364491
0.77304183
0.7179248
0.74467291
0.7259602
0.7316605
0.72506989
0.72394587
0.72057891
0.71778292
0.71470882
0.71154183
0.7082549
0.70485393
0.70134263
0.69772667
0.69401278
0.69020927
0.686326
0.6823744
0.6783675
0.6743198
0.67024718
0.6661667
0.66209633
0.65805465
0.65406055
0.65013278
0.6462896
0.64254833
0.63892501
0.63543395
0.6320875
0.62889575
0.62586641
0.62300475
0.62031357
0.61779337
0.61544247
0.61325725
0.61123244
0.60936137
0.60763627
0.60604856
0.6045891
0.60324842
0.60201696
0.60088522
0.59984388
0.59888399
0.59799698
0.59717475
0.59640972
0.59569483
0.59502354
0.59438986
0.59378824
0.5932136
0.59266122
0.59212668
0.5916058
0.59109455
0.59058918
0.59008605
0.58958161
0.58907224
0.58855389
0.58802171
0.58746996
0.5868924
0.58628272
0.58563496
0.58494434
0.58420653
0.58341001
0.58253614
0.58160268
0.58068002
0.57968704
0.57828148
0.65412254
0.77258982
0.7170137
0.74284593
0.72454163
0.72932472
0.72280065
0.7210807
0.7174803
0.71426468
0.71081669
0.70725464
0.70356494
0.69975554
0.69583251
0.69180475
0.68768264
0.68347853
0.67920668
0.67488321
0.67052597
0.66615435
0.661789
0.65745145
0.65316379
0.64894813
0.64482614
0.64081851
0.63694447
0.63322127
0.62966382
0.6262843
0.62309202
0.62009325
0.61729131
0.61468662
0.61227699
0.61005785
0.60802265
0.60616313
0.60446978
0.60293213
0.60153909
0.60027924
0.59914111
0.59811335
0.59718492
0.59634524
0.59558423
0.59489245
0.5942611
0.59368202
0.59314774
0.59265142
0.59218686
0.59174843
0.59133104
0.5909301
0.59054138
0.59016098
0.58978524
0.58941068
0.58903402
0.58865211
0.58826188
0.5878602
0.58744364
0.58700805
0.5865484
0.58605877
0.58553276
0.58496461
0.58435108
0.58368863
0.58296256
0.58215367
0.58129217
0.58044716
0.57949022
0.57810635
0.65404095
0.77125064
0.71525779
0.74020992
0.72217795
0.72595437
0.71948898
0.71708877
0.71318521
0.70949749
0.70560159
0.70157704
0.69741788
0.69313592
0.68874129
0.68424762
0.67967054
0.67502806
0.67034039
0.6656297
0.66091987
0.65623609
0.65160435
0.64705094
0.64260178
0.63828178
0.63411418
0.63011991
0.62631705
0.62272036
0.61934105
0.61618659
0.61326076
0.61056382
0.60809277
0.60584173
0.6038024
0.60196451
0.60031628
0.59884484
0.5975367
0.59637803
0.59535505
0.59445418
0.59366234
0.59296704
0.59235648
0.59181966
0.59134641
0.59092735
0.59055394
0.59021844
0.58991388
0.58963397
0.58937313
0.58912636
0.58888921
0.58865774
0.58842838
0.58819784
0.58796308
0.58772126
0.58746963
0.58720558
0.58692652
0.58662984
0.58631272
0.58597174
0.58560263
0.58519988
0.58475709
0.58426889
0.5837332
0.58314629
0.58249078
0.58175032
0.58096694
0.58019768
0.57926757
0.57793053
0.65337913
0.76892129
0.7125964
0.7365167
0.71879322
0.72145392
0.71496113
0.71183723
0.70751323
0.70328226
0.69885202
0.69428392
0.68957828
0.68475262
0.67982339
0.67481104
0.66973852
0.66463139
0.65951748
0.65442642
0.64938913
0.64443711
0.63960165
0.63491302
0.63039955
0.62608679
0.62199682
0.6181476
0.61455262
0.61122071
0.60815606
0.6053585
0.60282382
0.60054432
0.59850935
0.59670594
0.59511938
0.5937338
0.59253264
0.59149914
0.59061665
0.58986898
0.58924059
0.58871676
0.58828374
0.58792874
0.58764004
0.58740694
0.58721973
0.5870697
0.58694904
0.5868508
0.58676884
0.58669772
0.58663267
0.58656953
0.58650465
0.58643483
0.58635724
0.58626932
0.58616869
0.58605316
0.5859206
0.58576892
0.58559604
0.58539987
0.58517813
0.58492817
0.58464645
0.58432799
0.58396663
0.58355757
0.58309924
0.58258651
0.58200061
0.58133204
0.58063185
0.57993397
0.57902404
0.57775069
0.65206434
0.76541631
0.70898982
0.7316221
0.71422002
0.71563614
0.70901574
0.70509754
0.70022729
0.69535965
0.69029512
0.6850904
0.6797542
0.67431226
0.66879018
0.66321777
0.65762765
0.652055
0.64653688
0.64111143
0.63581683
0.63069021
0.62576645
0.62107706
0.61664915
0.61250467
0.60865987
0.60512509
0.60190481
0.59899799
0.59639864
0.59409643
0.59207756
0.59032544
0.58882158
0.58754622
0.58647898
0.58559942
0.58488746
0.58432373
0.58388981
0.5835684
0.58334346
0.58320024
0.58312528
0.58310642
0.58313274
0.58319448
0.583283
0.58339066
0.58351076
0.58363744
0.58376564
0.58389096
0.58400962
0.58411837
0.58421445
0.58429549
0.58435943
0.58440446
0.58442888
0.58443118
0.58440983
0.58436331
0.58429002
0.58418834
0.58405655
0.58389264
0.58369379
0.58345564
0.58317269
0.5828409
0.58245825
0.58201709
0.58149915
0.58090573
0.58029267
0.57965943
0.57876336
0.57757233
0.65003549
0.76048974
0.70453248
0.72535194
0.70828172
0.70828373
0.70138621
0.69658128
0.69101453
0.68539324
0.67958221
0.67364191
0.66759315
0.66147282
0.65531894
0.64917366
0.64308185
0.63709017
0.63124576
0.62559472
0.62018048
0.6150423
0.61021378
0.6057219
0.60158623
0.59781875
0.59442394
0.59139928
0.58873604
0.58642026
0.58443372
0.58275506
0.5813608
0.58022619
0.57932604
0.57863537
0.57812989
0.57778643
0.57758318
0.57749987
0.57751786
0.57762019
0.57779155
0.57801819
0.57828791
0.57858989
0.57891466
0.5792539
0.57960042
0.579948
0.58029128
0.58062572
0.58094743
0.58125318
0.58154022
0.5818063
0.58204956
0.58226844
0.58246169
0.58262819
0.58276697
0.58287714
0.58295777
0.58300789
0.58302637
0.58301206
0.58296369
0.58287983
0.58275824
0.5825953
0.58238666
0.58212915
0.58181942
0.5814465
0.5809947
0.58047884
0.57995517
0.57938066
0.57849519
0.57739839
0.64723052
0.7537734
0.69890708
0.71744986
0.70065978
0.69906344
0.69169655
0.68588294
0.67945684
0.67295209
0.66628179
0.65951553
0.65269123
0.64586132
0.63908031
0.6324061
0.62589766
0.61961304
0.61360709
0.60792929
0.60262179
0.59771792
0.59324134
0.58920571
0.58561499
0.58246422
0.57974062
0.57742496
0.57549304
0.57391703
0.57266689
0.57171146
0.57101945
0.57056025
0.57030447
0.57022441
0.5702943
0.57049045
0.57079134
0.57117757
0.57163182
0.57213872
0.57268473
0.57325802
0.5738483
0.57444666
0.57504547
0.57563822
0.57621939
0.57678433
0.57732919
0.57785075
0.5783464
0.57881405
0.57925203
0.57965902
0.58003405
0.58037638
0.58068544
0.58096085
0.58120226
0.58140938
0.58158187
0.58171925
0.58182088
0.58188603
0.58191386
0.58190332
0.58185263
0.58175905
0.5816197
0.58143232
0.58119168
0.58088364
0.58049668
0.58005904
0.57962311
0.57910392
0.57823563
0.57721925
0.64353598
0.74471964
0.69166973
0.70748582
0.69091558
0.68750818
0.67944384
0.67248466
0.66503454
0.6575173
0.64988967
0.64223701
0.63462159
0.62711729
0.61979885
0.61274064
0.60601304
0.59967935
0.59379306
0.5883958
0.58351619
0.57916954
0.57535843
0.57207391
0.56929718
0.56700156
0.56515447
0.56371942
0.56265767
0.56192978
0.56149677
0.56132104
0.56136703
0.56160167
0.56199459
0.56251826
0.56314794
0.56386165
0.56463995
0.56546584
0.56632448
0.56720308
0.56809064
0.56897778
0.56985653
0.57072023
0.57156328
0.5723811
0.57316992
0.57392671
0.57464908
0.57533517
0.57598358
0.57659331
0.57716367
0.57769428
0.57818494
0.57863566
0.57904653
0.57941778
0.57974967
0.58004243
0.58029623
0.58051109
0.58068682
0.58082313
0.58091951
0.58097517
0.58098868
0.58095821
0.58088244
0.58075985
0.5805834
0.5803371
0.58001468
0.57965401
0.57929837
0.57882927
0.57798865
0.57704925
0.63870366
0.73311833
0.68229392
0.69489373
0.67846229
0.67304404
0.66401182
0.65575212
0.64711987
0.63848121
0.62984452
0.62132041
0.61300215
0.60498748
0.5973682
0.59022673
0.58363197
0.57763649
0.57227502
0.56756431
0.56350411
0.56007915
0.55726166
0.55501427
0.55329279
0.55204889
0.55123236
0.550793
0.5506821
0.55085344
0.55126402
0.55187444
0.55264909
0.55355614
0.55456739
0.55565815
0.55680687
0.55799494
0.55920639
0.56042759
0.56164701
0.56285495
0.56404332
0.56520543
0.56633583
0.56743009
0.56848472
0.56949699
0.57046485
0.57138679
0.5722618
0.57308926
0.57386888
0.57460065
0.57528479
0.57592169
0.57651191
0.57705606
0.57755485
0.57800901
0.57841932
0.57878649
0.57911113
0.57939369
0.57963446
0.57983351
0.57999068
0.58010534
0.58017635
0.58020275
0.58018447
0.58012034
0.58000209
0.5798142
0.57955662
0.57927111
0.57898477
0.5785562
0.5777517
0.57690626
0.63236045
0.72010353
0.67028162
0.67905012
0.6625617
0.65493415
0.64461791
0.63488961
0.6249597
0.61517346
0.60560273
0.5963882
0.58764993
0.57949784
0.5720221
0.56529008
0.55934418
0.55420199
0.54985813
0.54628738
0.5434486
0.54128899
0.53974805
0.53876129
0.53826319
0.53818961
0.53847949
0.53907599
0.53992718
0.54098633
0.54221191
0.54356739
0.54502099
0.54654525
0.54811665
0.54971517
0.55132391
0.55292866
0.55451762
0.55608104
0.55761094
0.55910087
0.56054569
0.5619414
0.56328492
0.56457399
0.56580704
0.56698306
0.56810153
0.56916233
0.57016566
0.57111198
0.57200199
0.57283653
0.57361659
0.57434325
0.57501766
0.575641
0.57621447
0.57673926
0.57721654
0.57764742
0.57803288
0.57837378
0.5786708
0.57892441
0.57913472
0.57930131
0.5794234
0.57950074
0.57953391
0.57952144
0.5794546
0.57932099
0.57912774
0.57891522
0.5786882
0.57828957
0.57752684
0.57679491
0.62415058
0.70305817
0.65481921
0.65907065
0.64216815
0.63212807
0.62024059
0.60895021
0.5977651
0.58702309
0.57685422
0.56741405
0.55882174
0.55116561
0.54449781
0.53883574
0.53416513
0.53044516
0.52761462
0.52559818
0.52431226
0.52367006
0.52358551
0.52397627
0.52476565
0.52588378
0.52726812
0.52886352
0.5306219
0.53250184
0.53446792
0.53649015
0.53854328
0.54060625
0.54266158
0.54469492
0.54669457
0.54865108
0.55055693
0.55240622
0.55419443
0.55591819
0.5575751
0.55916357
0.56068267
0.56213205
0.56351183
0.56482247
0.56606479
0.56723981
0.56834878
0.56939307
0.57037419
0.57129371
0.57215324
0.57295445
0.57369897
0.57438842
0.57502444
0.57560856
0.57614229
0.57662706
0.57706414
0.57745473
0.57779984
0.57810027
0.57835643
0.57856817
0.57873524
0.57885798
0.57893697
0.57896977
0.57894771
0.5788633
0.57873121
0.57858773
0.57841376
0.57804117
0.57732623
0.57672191
0.61344403
0.68105109
0.63448948
0.6335678
0.61582791
0.6032692
0.5897454
0.57707413
0.56502467
0.55390727
0.54386567
0.53502227
0.52744135
0.52113865
0.51608487
0.51221468
0.50943629
0.50764107
0.50671222
0.50653175
0.50698576
0.50796801
0.509382
0.51114193
0.51317282
0.51541008
0.51779868
0.52029227
0.5228521
0.52544608
0.5280478
0.53063575
0.53319248
0.53570405
0.5381594
0.5405499
0.54286892
0.54511153
0.54727418
0.54935445
0.55135089
0.55326282
0.55509019
0.55683347
0.55849356
0.56007169
0.56156936
0.56298828
0.56433033
0.56559748
0.56679181
0.56791544
0.56897051
0.56995919
0.5708836
0.57174584
0.57254797
0.57329195
0.57397974
0.57461318
0.57519403
0.57572396
0.57620448
0.57663704
0.57702291
0.57736315
0.57765841
0.57790898
0.57811523
0.57827803
0.57839759
0.57847031
0.57848804
0.5784483
0.57837126
0.57828737
0.57816008
0.57782411
0.57717906
0.57667435
0.59908189
0.65200627
0.60742993
0.60082022
0.58196859
0.5670264
0.55229881
0.53896321
0.5269765
0.51656105
0.50778751
0.5006701
0.49515393
0.49113487
0.48847351
0.4870109
0.48658135
0.48702249
0.48818215
0.48992246
0.49212179
0.49467506
0.49749297
0.50050071
0.50363629
0.50684888
0.51009715
0.51334779
0.51657418
0.51975526
0.52287454
0.52591927
0.52887979
0.53174893
0.53452156
0.53719422
0.53976476
0.54223214
0.54459618
0.54685739
0.54901684
0.55107607
0.55303693
0.55490155
0.55667228
0.5583516
0.55994212
0.5614465
0.56286745
0.5642077
0.56546997
0.56665695
0.56777128
0.56881558
0.56979236
0.57070408
0.5715531
0.57234168
0.57307201
0.57374618
0.57436613
0.57493371
0.57545064
0.57591854
0.57633886
0.5767128
0.57704126
0.57732495
0.5775649
0.57776237
0.57791723
0.57802526
0.5780797
0.57808221
0.57805448
0.57801806
0.57792575
0.57763037
0.57707333
0.57665709
0.57919045
0.61361764
0.57148681
0.55909426
0.53964999
0.52274793
0.50798269
0.49541689
0.48501348
0.47681375
0.47071383
0.46654859
0.46410165
0.46313531
0.46340954
0.46469699
0.46679179
0.4695138
0.47270955
0.47625094
0.48003283
0.48397004
0.48799441
0.49205189
0.49610007
0.500106
0.50404436
0.50789596
0.51164653
0.51528568
0.51880613
0.52220305
0.52547356
0.5286163
0.53163111
0.53451877
0.53728077
0.53991918
0.54243651
0.54483554
0.54711934
0.54929112
0.55135421
0.553312
0.55516793
0.55692544
0.55858795
0.56015885
0.56164148
0.56303911
0.56435494
0.56559209
0.56675358
0.56784234
0.5688612
0.56981287
0.57069994
0.5715249
0.57229012
0.57299786
0.57365023
0.57424923
0.57479672
0.57529444
0.57574396
0.57614657
0.57650335
0.5768154
0.57708417
0.57731108
0.57749573
0.57763429
0.5777225
0.57776568
0.57778396
0.57778764
0.57772127
0.57746023
0.57699262
0.57670966
0.55123081
0.56345005
0.52537257
0.50709442
0.48654478
0.47121601
0.45838276
0.44865595
0.44176074
0.4374498
0.43536978
0.43515346
0.43644111
0.43890627
0.44226549
0.44628144
0.45076059
0.45554838
0.46052341
0.46559159
0.47068089
0.47573683
0.4807187
0.48559657
0.4903488
0.49496024
0.49942065
0.5037236
0.50786555
0.51184515
0.51566274
0.51931988
0.52281907
0.5261635
0.52935684
0.53240313
0.53530659
0.53807165
0.54070276
0.54320445
0.5455812
0.54783747
0.54997765
0.55200605
0.5539269
0.55574431
0.5574623
0.55908476
0.56061548
0.56205812
0.56341623
0.56469321
0.56589236
0.56701685
0.56806971
0.56905385
0.56997202
0.57082688
0.57162094
0.57235659
0.57303606
0.57366148
0.57423483
0.57475793
0.57523243
0.57565973
0.57604106
0.57637777
0.57667148
0.57692341
0.57713296
0.57729721
0.57741482
0.5774939
0.57755202
0.57759065
0.57755346
0.57734033
0.57696417
0.57675306
0.51112908
0.4989112
0.46184801
0.44412027
0.42685394
0.41481705
0.40666844
0.40219577
0.40073041
0.40168317
0.40448263
0.40864285
0.41376389
0.41953032
0.42569967
0.43208952
0.43856497
0.44502783
0.45140771
0.45765509
0.46373596
0.46962776
0.47531638
0.48079382
0.48605661
0.49110446
0.4959394
0.50056512
0.50498639
0.50920875
0.51323824
0.51708114
0.52074392
0.52423304
0.52755493
0.53071592
0.53372221
0.53657985
0.5392947
0.54187244
0.54431857
0.54663841
0.54883706
0.55091947
0.55289039
0.55475442
0.55651595
0.55817923
0.55974834
0.56122722
0.56261962
0.56392916
0.56515932
0.56631342
0.56739464
0.56840602
0.56935042
0.57023061
0.57104922
0.57180873
0.57251147
0.57315966
0.57375538
0.57430053
0.57479683
0.5752458
0.57564887
0.57600753
0.57632335
0.57659725
0.57682855
0.57701532
0.57715836
0.57726639
0.57735285
0.57741375
0.57740008
0.57724053
0.57696709
0.57685564
0.45011583
0.4176323
0.38809946
0.37340118
0.362705
0.35806299
0.35763408
0.36050155
0.36566844
0.37237834
0.38004926
0.38826086
0.39671627
0.40521134
0.41360863
0.42181802
0.42978237
0.43746738
0.44485443
0.45193556
0.45870997
0.46518164
0.4713576
0.47724684
0.48285944
0.48820607
0.49329761
0.49814488
0.50275851
0.50714879
0.51132567
0.51529866
0.51907687
0.52266897
0.52608323
0.52932751
0.53240929
0.53533569
0.53811348
0.54074912
0.54324874
0.54561821
0.54786311
0.54998879
0.55200033
0.55390261
0.5557003
0.55739785
0.55899954
0.56050944
0.56193147
0.56326937
0.56452673
0.56570697
0.56681336
0.56784901
0.56881687
0.56971978
0.57056045
0.5713414
0.57206507
0.57273372
0.5733495
0.57391439
0.5744302
0.57489858
0.57532112
0.57569944
0.57603502
0.57632862
0.57657983
0.57678789
0.57695472
0.57708759
0.57719471
0.57726934
0.57727506
0.57716907
0.57698817
0.57692074
0.35515164
0.32153835
0.30406272
0.29972336
0.30121739
0.30758071
0.31681747
0.32767172
0.33927332
0.35107686
0.3627503
0.3741005
0.38502164
0.39546194
0.4054026
0.41484453
0.4238001
0.43228806
0.4403303
0.44794997
0.45517025
0.46201374
0.46850199
0.47465537
0.48049297
0.4860326
0.49129084
0.49628311
0.50102372
0.50552597
0.50980225
0.51386406
0.51772215
0.52138656
0.52486666
0.52817126
0.53130859
0.53428644
0.53711212
0.53979252
0.54233417
0.54474326
0.54702564
0.54918689
0.5512323
0.5531669
0.5549955
0.55672268
0.55835282
0.55989009
0.56133847
0.56270178
0.56398367
0.5651876
0.56631691
0.56737474
0.56836409
0.56928784
0.57014873
0.57094935
0.57169214
0.57237944
0.57301342
0.57359612
0.57412942
0.57461509
0.57505483
0.57545032
0.57580295
0.57611357
0.57638235
0.57660963
0.57679768
0.57695146
0.57707485
0.57716144
0.57718875
0.57713506
0.57702832
0.57698599
0.21637576
0.21508492
0.22055653
0.23406196
0.25140654
0.26981889
0.28808617
0.30557062
0.32204574
0.33745057
0.35181153
0.36518978
0.37765947
0.38929612
0.40017159
0.41035199
0.41989706
0.42886033
0.43728952
0.44522717
0.45271115
0.45977526
0.46644974
0.47276169
0.47873548
0.48439309
0.48975441
0.49483749
0.49965878
0.50423328
0.50857478
0.5126959
0.51660834
0.52032287
0.5238495
0.52719755
0.53037569
0.53339205
0.53625422
0.53896937
0.54154422
0.54398512
0.54629808
0.54848878
0.55056261
0.55252471
0.55437993
0.55613293
0.55778812
0.55934973
0.56082177
0.56220809
0.56351235
0.56473807
0.56588858
0.56696706
0.56797652
0.56891985
0.56979982
0.57061902
0.57137994
0.5720849
0.57273611
0.57333562
0.57388536
0.57438715
0.57484273
0.57525375
0.57562155
0.57594712
0.5762312
0.57647484
0.5766801
0.57684977
0.57698506
0.57708183
0.57712992
0.57712257
0.57706881
0.57703762
0.091787869
0.12179916
0.15927013
0.19297069
0.22312061
0.2496557
0.27319728
0.29421399
0.31312329
0.33025225
0.34586453
0.36017122
0.37334364
0.38552192
0.39682198
0.40734051
0.41715897
0.42634648
0.43496222
0.44305717
0.45067557
0.45785604
0.4646325
0.47103491
0.47708984
0.48282101
0.4882497
0.49339503
0.49827432
0.50290327
0.50729621
0.51146624
0.51542539
0.51918474
0.52275455
0.5261443
0.52936284
0.53241841
0.53531872
0.53807101
0.54068206
0.5431583
0.54550575
0.54773014
0.5498369
0.55183116
0.55371783
0.55550154
0.55718674
0.55877765
0.5602783
0.56169255
0.56302407
0.56427638
0.56545281
0.56655655
0.56759063
0.56855793
0.56946123
0.57030313
0.57108612
0.57181252
0.57248454
0.57310423
0.5736735
0.57419419
0.57466801
0.57509651
0.57548101
0.57582254
0.5761221
0.57638098
0.57660097
0.57678379
0.57692965
0.57703594
0.5770981
0.57711471
0.5770957
0.57706649
0.012351941
0.28491814
0.46702272
0.51777466
0.52752075
0.52754356
0.52754912
0.52916079
0.53105422
0.53286982
0.53455561
0.53620486
0.53775756
0.53928205
0.54078686
0.54228222
0.54376861
0.54524859
0.54672412
0.54819582
0.54966369
0.55112738
0.55258623
0.55403935
0.55548566
0.55692393
0.5583528
0.55977086
0.56117659
0.56256846
0.56394487
0.56530421
0.56664481
0.56796501
0.56926311
0.57053739
0.57178612
0.57300752
0.57419983
0.57536123
0.57648991
0.57758402
0.57864172
0.57966116
0.58064047
0.5815778
0.58247131
0.58331919
0.58411966
0.58487101
0.58557159
0.58621985
0.58681435
0.58735375
0.58783685
0.58826264
0.5886303
0.58893919
0.58918897
0.58937923
0.5895094
0.58957924
0.58958891
0.58953853
0.58942747
0.58925522
0.58901816
0.58871783
0.58834173
0.58791016
0.58737369
0.58682875
0.58607546
0.58546139
0.58437123
0.58385595
0.5822499
0.5819628
0.57986872
0.57965286
0.047226946
0.36924259
0.52249027
0.54944546
0.54952607
0.54697066
0.54620346
0.54648038
0.54671942
0.54701892
0.54741837
0.54796933
0.54863292
0.54937877
0.5501817
0.55103735
0.55194077
0.55288948
0.55387927
0.55490559
0.55596433
0.5570516
0.55816363
0.55929677
0.56044748
0.56161234
0.562788
0.56397124
0.56515892
0.56634799
0.56753548
0.56871853
0.56989432
0.57106013
0.57221328
0.57335116
0.5744712
0.57557089
0.57664773
0.57769931
0.5787232
0.57971705
0.58067853
0.58160535
0.58249526
0.58334607
0.58415563
0.58492186
0.58564276
0.58631643
0.58694109
0.58751508
0.58803686
0.58850506
0.58891849
0.58927612
0.5895772
0.58982116
0.59000774
0.59013664
0.59020737
0.59021985
0.59017434
0.59007105
0.58990948
0.58968908
0.58940663
0.58906301
0.58864744
0.58817701
0.58760874
0.58702677
0.58625285
0.58560286
0.58450637
0.58394786
0.58234735
0.5820345
0.57990114
0.57973976
0.094008502
0.44118276
0.5451768
0.55808439
0.55592583
0.55463744
0.55456373
0.5550265
0.55530648
0.55569943
0.55607632
0.55651684
0.55698181
0.55749705
0.55805317
0.55865313
0.55929353
0.55997517
0.56069614
0.56145418
0.56224711
0.56307255
0.56392799
0.56481077
0.56571812
0.56664721
0.56759516
0.56855904
0.56953587
0.57052268
0.57151648
0.57251428
0.57351309
0.57450994
0.57550185
0.57648588
0.5774591
0.5784186
0.57936152
0.58028501
0.58118629
0.58206258
0.5829112
0.58372949
0.58451486
0.58526478
0.58597683
0.58664864
0.58727801
0.58786283
0.58840114
0.58889115
0.58933124
0.58971996
0.59005608
0.59033855
0.59056665
0.59073986
0.59085801
0.59092082
0.59092792
0.59087931
0.59077535
0.59061632
0.5904018
0.59013121
0.5898016
0.58941343
0.588957
0.58844732
0.58784552
0.58722754
0.58642993
0.58574798
0.58463871
0.58404467
0.58243935
0.58210617
0.57993654
0.57981928
0.16670348
0.49940028
0.55872577
0.56604813
0.56256005
0.56241261
0.5624636
0.56295698
0.56312744
0.56346721
0.56374534
0.56410105
0.56446853
0.5648757
0.5653061
0.56576594
0.56625295
0.56676975
0.56731573
0.56789024
0.5684927
0.56912231
0.56977806
0.57045873
0.57116288
0.5718889
0.57263501
0.57339923
0.57417944
0.57497336