/*--------------------------------*- C++ -*----------------------------------*\
| =========                 |                                                 |
| \\      /  F ield         | OpenFOAM: The Open Source CFD Toolbox           |
|  \\    /   O peration     | Version:  2512                                  |
|   \\  /    A nd           | Website:  www.openfoam.com                      |
|    \\/     M anipulation  |                                                 |
\*---------------------------------------------------------------------------*/
FoamFile
{
    version     2.0;
    format      ascii;
    arch        "LSB;label=32;scalar=64";
    class       volScalarField;
    location    "0.145";
    object      nut;
}
// * * * * * * * * * * * * * * * * * * * * * * * * * * * * * * * * * * * * * //

dimensions      [0 2 -1 0 0 0 0];

internalField   nonuniform List<scalar> 
16000
(
5.7803313e-07
1.1003977e-05
1.9600001e-05
2.3207466e-05
1.8538424e-05
2.5108563e-05
1.7851284e-05
2.453751e-05
1.9072073e-05
2.6504019e-05
2.2157388e-05
2.6145018e-05
2.3725575e-05
2.435269e-05
2.3478618e-05
2.3318447e-05
2.3044361e-05
2.2953077e-05
2.2941103e-05
2.3028645e-05
2.3207912e-05
2.3477444e-05
2.3834463e-05
2.4278745e-05
2.4812008e-05
2.543985e-05
2.616985e-05
2.7014307e-05
2.7988269e-05
2.9107936e-05
3.0391056e-05
3.1861313e-05
3.3549345e-05
3.5492932e-05
3.77386e-05
4.0341855e-05
4.336882e-05
4.6898331e-05
5.1028013e-05
5.5878916e-05
6.1593064e-05
6.8337605e-05
7.6323378e-05
8.5808709e-05
9.7101004e-05
0.00011056888
0.00012666951
0.00014596001
0.00016911882
0.00019697281
0.00023053427
0.00027104548
0.00032002611
0.0003793395
0.00045127077
0.00053863344
0.00064490219
0.00077438526
0.00093245623
0.001018961
0.001018895
0.001018787
0.001018641
0.0010184225
0.0010181282
0.0010177473
0.0010172719
0.0010166951
0.001016007
0.0010151906
0.0010142163
0.0010130284
0.001011592
0.0010101598
0.001008927
0.001007804
0.0010067691
0.0010064849
0.0010052457
0.0010061299
4.9678032e-07
1.0426734e-05
1.9575769e-05
2.0882419e-05
1.6751707e-05
2.254084e-05
1.5873714e-05
2.1499057e-05
1.6880222e-05
2.3409368e-05
2.0089243e-05
2.3586617e-05
2.1720901e-05
2.2084332e-05
2.1398272e-05
2.1188214e-05
2.0958426e-05
2.0864899e-05
2.085658e-05
2.0936645e-05
2.1102558e-05
2.1352494e-05
2.168424e-05
2.209768e-05
2.2594045e-05
2.3178554e-05
2.385775e-05
2.4642694e-05
2.554762e-05
2.6588339e-05
2.7781368e-05
2.9148332e-05
3.0717586e-05
3.2524106e-05
3.461142e-05
3.703172e-05
3.9847599e-05
4.313314e-05
4.6979259e-05
5.1500552e-05
5.6833543e-05
6.3135616e-05
7.0605338e-05
7.9489044e-05
9.0082084e-05
0.00010273492
0.00011788374
0.00013606199
0.00015792078
0.00018425433
0.00021603529
0.00025446062
0.00030099661
0.00035744474
0.00042601654
0.00050943785
0.0006110794
0.00073511741
0.00088674696
0.0010182354
0.0010181897
0.0010180605
0.0010179008
0.0010176704
0.0010173655
0.0010169751
0.0010164904
0.0010159048
0.001015209
0.0010143869
0.0010134133
0.0010122401
0.0010108305
0.0010094645
0.0010082899
0.0010072046
0.0010062731
0.0010057582
0.001005059
0.0010060608
4.3843133e-07
9.9879481e-06
1.8552195e-05
1.9189357e-05
1.5039158e-05
1.9890672e-05
1.4153448e-05
1.8703107e-05
1.5196355e-05
2.0547388e-05
1.8334651e-05
2.1011042e-05
1.9690693e-05
1.9787806e-05
1.9256997e-05
1.9027519e-05
1.8833471e-05
1.8747883e-05
1.874519e-05
1.8822094e-05
1.8977534e-05
1.9210069e-05
1.9517781e-05
1.990086e-05
2.0360208e-05
2.0900877e-05
2.1528727e-05
2.225379e-05
2.3089345e-05
2.4050832e-05
2.5153957e-05
2.6418734e-05
2.7871638e-05
2.9545236e-05
3.1480407e-05
3.3726302e-05
3.6342401e-05
3.9399078e-05
4.298164e-05
4.7198251e-05
5.2180952e-05
5.8079661e-05
6.5082477e-05
7.3424587e-05
8.3391794e-05
9.5319919e-05
0.00010962763
0.0001268286
0.00014755129
0.00017256347
0.00020280509
0.0002394357
0.00028387733
0.00033788033
0.00040359539
0.00048367511
0.00058140296
0.00070085111
0.00084707798
0.0010175558
0.0010175305
0.0010173753
0.001017194
0.0010169441
0.0010166213
0.0010162141
0.0010157133
0.001015112
0.0010144018
0.0010135672
0.0010125856
0.0010114176
0.0010100296
0.0010087383
0.0010076275
0.0010066057
0.0010057258
0.0010051285
0.0010047294
0.0010055575
3.9103177e-07
9.6630045e-06
1.7649808e-05
1.8409281e-05
1.3572525e-05
1.7595624e-05
1.2629908e-05
1.6359629e-05
1.3694025e-05
1.8116549e-05
1.675282e-05
1.872946e-05
1.781642e-05
1.7719941e-05
1.7306249e-05
1.7078071e-05
1.6915283e-05
1.6842006e-05
1.6846744e-05
1.6923006e-05
1.7070475e-05
1.7288237e-05
1.7574737e-05
1.793062e-05
1.8356611e-05
1.8857742e-05
1.9439435e-05
2.0110916e-05
2.0884557e-05
2.1775492e-05
2.2798904e-05
2.3973437e-05
2.5324048e-05
2.6881239e-05
2.8683654e-05
3.0777833e-05
3.3220571e-05
3.607936e-05
3.9435076e-05
4.3389915e-05
4.8072514e-05
5.3627185e-05
6.0233682e-05
6.8117337e-05
7.7557144e-05
8.8877743e-05
0.00010248402
0.00011887442
0.00013866003
0.00016258939
0.00019157774
0.00022675747
0.00026951826
0.00032157422
0.00038503365
0.00046249846
0.00055719175
0.00067311615
0.00081524592
0.00098975812
0.0010169148
0.0010167309
0.0010165232
0.0010162493
0.0010159042
0.0010154763
0.0010149555
0.0010143347
0.0010136065
0.0010127559
0.0010117619
0.0010105963
0.0010092256
0.0010080095
0.0010069668
0.0010060121
0.001005163
0.0010045414
0.0010043441
0.0010048204
3.4247453e-07
9.4283889e-06
1.6887374e-05
1.8494151e-05
1.3434754e-05
1.5584143e-05
1.1292074e-05
1.4345206e-05
1.2401087e-05
1.602236e-05
1.5347463e-05
1.6674019e-05
1.6067064e-05
1.583932e-05
1.5512105e-05
1.5298379e-05
1.516058e-05
1.5099152e-05
1.5109183e-05
1.5183481e-05
1.5322068e-05
1.5524724e-05
1.5790288e-05
1.6119906e-05
1.6514265e-05
1.6978414e-05
1.7517451e-05
1.8139963e-05
1.8857414e-05
1.9684583e-05
2.0636316e-05
2.1730125e-05
2.2989713e-05
2.4443805e-05
2.6129134e-05
2.8089976e-05
3.0380745e-05
3.3066619e-05
3.6225195e-05
3.9953021e-05
4.4375907e-05
4.9634029e-05
5.5900696e-05
6.339204e-05
7.238199e-05
8.318658e-05
9.6199437e-05
0.00011190664
0.00013090505
0.00015392844
0.00018187202
0.00021584672
0.00025721632
0.00030766625
0.00036927161
0.00044459449
0.00053681043
0.00064986691
0.00078867297
0.00095931947
0.0010163436
0.0010161281
0.0010158886
0.0010155857
0.0010152136
0.0010147604
0.0010142154
0.0010135709
0.0010128205
0.0010119502
0.0010109387
0.0010097713
0.001008427
0.0010072869
0.0010063154
0.001005428
0.0010046084
0.0010040021
0.0010039369
0.0010041195
3.1528765e-07
9.2723967e-06
1.6278314e-05
1.8224911e-05
1.3240127e-05
1.3829461e-05
1.0738755e-05
1.2676224e-05
1.1702999e-05
1.430395e-05
1.4119146e-05
1.4867606e-05
1.446413e-05
1.4158176e-05
1.388516e-05
1.3687568e-05
1.3566014e-05
1.3512299e-05
1.352422e-05
1.3594752e-05
1.3723913e-05
1.3912035e-05
1.4158214e-05
1.446386e-05
1.482983e-05
1.5261095e-05
1.5762484e-05
1.6342121e-05
1.7010588e-05
1.7782282e-05
1.867189e-05
1.9696018e-05
2.0877391e-05
2.2243275e-05
2.3828854e-05
2.5676557e-05
2.7838812e-05
3.0378995e-05
3.3372664e-05
3.6911544e-05
4.1118896e-05
4.6132276e-05
5.212095e-05
5.929277e-05
6.7918483e-05
7.8308529e-05
9.084826e-05
0.00010601507
0.00012439532
0.0001467137
0.00017385127
0.00020690498
0.00024722136
0.00029646733
0.00035669763
0.00043044969
0.00052086948
0.00063187045
0.00076832446
0.00093627505
0.0010158087
0.001015559
0.0010152833
0.0010149472
0.0010145439
0.0010140618
0.0010134892
0.0010128176
0.0010120413
0.0010111484
0.0010101161
0.001008941
0.0010076385
0.0010065753
0.0010056771
0.0010048576
0.0010040725
0.0010034902
0.0010034672
0.0010034757
2.7631699e-07
9.1801289e-06
1.5796079e-05
1.7199735e-05
1.3082689e-05
1.2219751e-05
1.0731273e-05
1.1671942e-05
1.1202435e-05
1.2717149e-05
1.2998107e-05
1.3261857e-05
1.2964334e-05
1.2625683e-05
1.2384835e-05
1.2204784e-05
1.2096498e-05
1.2050279e-05
1.2064572e-05
1.2132891e-05
1.2254876e-05
1.2431355e-05
1.2661657e-05
1.2870756e-05
1.32037e-05
1.3599175e-05
1.4061423e-05
1.4597847e-05
1.5217997e-05
1.5935558e-05
1.6765022e-05
1.7722126e-05
1.8828704e-05
2.011064e-05
2.1601698e-05
2.3342632e-05
2.5384023e-05
2.7787483e-05
3.0627283e-05
3.424779e-05
3.8281957e-05
4.3099919e-05
4.8869304e-05
5.5790898e-05
6.4133328e-05
7.4204355e-05
8.638394e-05
0.00010114413
0.00011906396
0.00014086426
0.00016741717
0.00019981242
0.00023938695
0.00028779814
0.00034709146
0.00041979314
0.00050903518
0.00061871499
0.00075368961
0.00091998709
0.001015307
0.0010150203
0.0010147045
0.0010143313
0.0010138934
0.0010133789
0.0010127757
0.0010120742
0.0010112689
0.001010351
0.0010092964
0.0010081054
0.0010068699
0.0010058838
0.001005059
0.0010043081
0.0010035654
0.0010030084
0.0010029768
0.0010028663
2.4896886e-07
9.1280765e-06
1.5375824e-05
1.5604061e-05
1.1727376e-05
1.0644477e-05
9.0507316e-06
1.0369161e-05
9.4819405e-06
1.1457342e-05
1.1858639e-05
1.1778686e-05
1.1527026e-05
1.1199061e-05
1.0985896e-05
1.0828577e-05
1.0736321e-05
1.0700692e-05
1.0655163e-05
1.0708641e-05
1.0815459e-05
1.0975611e-05
1.1187225e-05
1.1449894e-05
1.176776e-05
1.2143856e-05
1.2582589e-05
1.309134e-05
1.3679146e-05
1.4359298e-05
1.514652e-05
1.6056112e-05
1.7109514e-05
1.8331763e-05
1.9755817e-05
2.1421393e-05
2.3377981e-05
2.5686125e-05
2.8419683e-05
3.1668572e-05
3.554238e-05
4.0179882e-05
4.5748878e-05
5.2886775e-05
6.1027597e-05
7.087604e-05
8.2809914e-05
9.7299178e-05
0.00011491888
0.00013639157
0.00016258606
0.00019459193
0.00023374501
0.00028170274
0.00034051326
0.00041270621
0.0005014169
0.00061054662
0.000744961
0.00091070539
0.0010148319
0.0010145058
0.0010141467
0.0010137332
0.0010132576
0.0010127081
0.001012072
0.0010113386
0.0010105018
0.0010095562
0.0010084814
0.0010072669
0.0010061267
0.001005218
0.0010044655
0.0010037842
0.0010030939
0.0010025591
0.0010025018
0.001002276
2.3108606e-07
9.0922417e-06
1.4919608e-05
1.3664491e-05
9.6094573e-06
9.4842601e-06
7.4871786e-06
8.9050803e-06
9.0572653e-06
1.026265e-05
1.0707692e-05
1.0402409e-05
1.0175095e-05
9.881199e-06
9.69512e-06
9.4951606e-06
9.3952767e-06
9.3566715e-06
9.3723295e-06
9.4389328e-06
9.5515618e-06
9.7132186e-06
9.9213613e-06
1.0176426e-05
1.0482475e-05
1.0843359e-05
1.1263593e-05
1.1750619e-05
1.2313148e-05
1.2964065e-05
1.3718429e-05
1.4591336e-05
1.5604111e-05
1.6781214e-05
1.8155115e-05
1.9764916e-05
2.1659455e-05
2.3898705e-05
2.6555958e-05
2.9720392e-05
3.3502e-05
3.8037619e-05
4.3497872e-05
5.0080576e-05
5.8039295e-05
6.7689454e-05
8.0111353e-05
9.4463435e-05
0.00011194129
0.00013327451
0.0001593345
0.00019121785
0.00023026778
0.00027815166
0.0003369324
0.00040915802
0.00049798494
0.0006073389
0.00074211725
0.00090841355
0.0010143778
0.0010140099
0.0010136051
0.0010131488
0.0010126331
0.0010120464
0.0010113756
0.0010106092
0.0010097394
0.0010087634
0.0010076729
0.0010064527
0.0010054154
0.0010045843
0.0010039018
0.0010032898
0.0010026637
0.0010021497
0.0010020393
0.0010016736
2.0699206e-07
9.0513736e-06
1.3206359e-05
1.1945936e-05
7.7678862e-06
8.4391393e-06
6.7833259e-06
8.0147907e-06
8.3817818e-06
9.1732082e-06
9.5686682e-06
9.1508193e-06
8.9332722e-06
8.5943216e-06
8.4011091e-06
8.2729354e-06
8.2067433e-06
8.1935557e-06
8.226351e-06
8.3055621e-06
8.4255155e-06
8.5879874e-06
8.7941873e-06
9.0439662e-06
9.3416622e-06
9.6915635e-06
1.0098371e-05
1.0569724e-05
1.111415e-05
1.1744164e-05
1.2475202e-05
1.3322444e-05
1.4307298e-05
1.5453891e-05
1.6794495e-05
1.8367962e-05
2.0222891e-05
2.2419186e-05
2.5030469e-05
2.8146365e-05
3.1877012e-05
3.6358923e-05
4.1765936e-05
4.8296098e-05
5.6205427e-05
6.5811586e-05
7.7506227e-05
9.1749109e-05
0.00011012112
0.00013150398
0.00015765548
0.00018968629
0.00022895627
0.00027715306
0.00033636716
0.00040918086
0.0004987908
0.0006091698
0.00074527153
0.00091326773
0.0010139384
0.0010135267
0.0010130745
0.0010125736
0.0010120159
0.0010113905
0.001010684
0.001009884
0.0010089814
0.0010079726
0.0010068671
0.0010056828
0.0010047416
0.0010039878
0.0010033722
0.0010028273
0.0010022743
0.0010017896
0.0010016005
0.0010011572
1.896812e-07
9.000376e-06
1.0470977e-05
9.8188178e-06
6.431579e-06
7.5109175e-06
6.1889967e-06
7.1974651e-06
7.8349134e-06
8.1774622e-06
8.4495851e-06
7.925777e-06
7.6643725e-06
7.4250218e-06
7.2793952e-06
7.1903959e-06
7.1524182e-06
7.1619757e-06
7.2115448e-06
7.3003954e-06
7.4269557e-06
7.5925879e-06
7.7988936e-06
8.046342e-06
8.339388e-06
8.6827922e-06
9.0815662e-06
9.543597e-06
1.0077408e-05
1.0695197e-05
1.1354295e-05
1.2177267e-05
1.3136191e-05
1.4254811e-05
1.5565169e-05
1.7105891e-05
1.8925392e-05
2.1083556e-05
2.3654451e-05
2.672842e-05
3.0416749e-05
3.5130688e-05
4.0539914e-05
4.7084346e-05
5.5022574e-05
6.4675707e-05
7.6446627e-05
9.0806117e-05
0.00010834788
0.00012981203
0.00015753413
0.00018998518
0.00022980266
0.00027870542
0.00033882503
0.00041279505
0.0005038726
0.00061610233
0.00075452127
0.0009254082
0.0010135077
0.0010130504
0.00101255
0.0010120032
0.0010114024
0.0010107374
0.0010099947
0.001009161
0.001008227
0.0010071868
0.0010060589
0.0010049598
0.0010041105
0.0010034328
0.0010028809
0.0010023987
0.0010019189
0.001001471
0.0010012076
0.0010007538
1.7476376e-07
8.9473218e-06
8.2642126e-06
8.3592934e-06
5.7575397e-06
6.6510962e-06
5.6770483e-06
6.4826357e-06
7.2761787e-06
7.2480945e-06
7.2364621e-06
6.789783e-06
6.5753911e-06
6.3970683e-06
6.2920696e-06
6.2361026e-06
6.2242361e-06
6.2519206e-06
6.3159047e-06
6.4157464e-06
6.5499089e-06
6.7201855e-06
6.9290531e-06
7.1774806e-06
7.4700514e-06
7.7783408e-06
8.1679193e-06
8.6203162e-06
9.1439207e-06
9.7504869e-06
1.0454153e-05
1.1273311e-05
1.2228697e-05
1.3344135e-05
1.465199e-05
1.6191321e-05
1.8011191e-05
2.017234e-05
2.2750403e-05
2.5837736e-05
2.9548376e-05
3.4024838e-05
3.9441755e-05
4.6008568e-05
5.3988363e-05
6.4261984e-05
7.6219598e-05
9.0825859e-05
0.0001086853
0.00013056121
0.00015738618
0.00019210257
0.000232801
0.00028281119
0.00034431999
0.00042003057
0.00051328238
0.00062821895
0.00076999195
0.00094501536
0.0010130799
0.0010125755
0.0010120269
0.0010114337
0.0010107893
0.0010100842
0.0010093054
0.0010084386
0.0010074745
0.0010064107
0.0010052598
0.0010042874
0.0010035259
0.0010029223
0.0010024312
0.0010020062
0.0010015975
0.0010011992
0.0010008841
0.0010004137
1.6124161e-07
8.8686319e-06
6.5749451e-06
7.3425935e-06
5.1311689e-06
5.8810809e-06
5.2339164e-06
5.8458576e-06
6.609463e-06
6.1950457e-06
6.1407259e-06
5.795636e-06
5.6246234e-06
5.4960016e-06
5.4260437e-06
5.398558e-06
5.4090135e-06
5.4548821e-06
5.5331136e-06
5.6441542e-06
5.7873464e-06
5.9646171e-06
6.1528057e-06
6.4001224e-06
6.6914006e-06
7.03084e-06
7.4254957e-06
7.882911e-06
8.4116672e-06
9.0236941e-06
9.7332641e-06
1.0558537e-05
1.1521483e-05
1.2646301e-05
1.3965935e-05
1.5520252e-05
1.7359487e-05
1.9545741e-05
2.2156901e-05
2.5288331e-05
2.9057e-05
3.3608693e-05
3.9127063e-05
4.5826913e-05
5.3979647e-05
6.3922888e-05
7.6076112e-05
9.0946511e-05
0.00011012018
0.00013259618
0.00016017601
0.0001940506
0.00023793737
0.00028946467
0.00035285723
0.00043090787
0.00052706203
0.00064559088
0.00079179811
0.00097226385
0.0010126496
0.0010120973
0.0010115011
0.0010108617
0.0010101737
0.0010094285
0.0010086142
0.0010077159
0.0010067223
0.0010056452
0.0010045369
0.0010036676
0.0010029903
0.0010024583
0.0010020259
0.0010016518
0.0010013067
0.0010009713
0.0010006392
0.0010001369
1.4938884e-07
8.7351751e-06
5.2781536e-06
6.419966e-06
4.568437e-06
5.1936463e-06
4.8555689e-06
5.1951897e-06
5.7738159e-06
5.2800784e-06
5.1802052e-06
4.9269291e-06
4.7966114e-06
4.7095174e-06
4.6705679e-06
4.6687133e-06
4.7001032e-06
4.7632375e-06
4.8560591e-06
4.9608179e-06
5.1091193e-06
5.2915321e-06
5.5103511e-06
5.7685605e-06
6.0704384e-06
6.4205359e-06
6.8257968e-06
7.2943567e-06
7.8349975e-06
8.4597965e-06
9.1831478e-06
1.0023447e-05
1.0953491e-05
1.2087706e-05
1.3418976e-05
1.4987947e-05
1.6846228e-05
1.9057324e-05
2.1701407e-05
2.4877329e-05
2.8705971e-05
3.3590546e-05
3.926049e-05
4.6154252e-05
5.4552614e-05
6.4802945e-05
7.7344853e-05
9.2708039e-05
0.00011154136
0.00013588624
0.00016444978
0.0001995514
0.00024271078
0.00029864607
0.00036442648
0.00044542955
0.00054523358
0.00066826665
0.00082002766
0.0010073052
0.0010122121
0.0010116117
0.0010109694
0.0010102848
0.0010095538
0.0010087688
0.0010079194
0.0010069924
0.0010059744
0.0010048792
0.0010038788
0.0010031044
0.0010025052
0.001002041
0.0010016663
0.0010013377
0.0010010418
0.0010007757
0.0010004824
0.00099996258
1.3888083e-07
8.5156382e-06
4.3016573e-06
5.5947374e-06
4.0641324e-06
4.5823893e-06
4.5233832e-06
4.489383e-06
4.9333022e-06
4.466052e-06
4.3495216e-06
4.1717004e-06
4.0796456e-06
4.0282411e-06
4.0173061e-06
4.0390827e-06
4.090529e-06
4.1544214e-06
4.2571885e-06
4.3905098e-06
4.5552686e-06
4.7529998e-06
4.9866484e-06
5.2593635e-06
5.5759459e-06
5.9411788e-06
6.3620497e-06
6.8266002e-06
7.3792223e-06
8.0166239e-06
8.7532576e-06
9.6075586e-06
1.0602091e-05
1.1765232e-05
1.3130865e-05
1.4740992e-05
1.6649573e-05
1.8922517e-05
2.164319e-05
2.4915447e-05
2.8865719e-05
3.3653337e-05
3.9471076e-05
4.6556483e-05
5.5202339e-05
6.6321191e-05
7.9355872e-05
9.5335193e-05
0.00011493992
0.00013900994
0.00017016412
0.00020676718
0.00025179297
0.0003071956
0.00037898609
0.00046356134
0.00056777552
0.00069624375
0.0008547042
0.0010123852
0.0010117629
0.001011116
0.0010104296
0.0010097014
0.0010089283
0.0010081046
0.0010072205
0.0010062661
0.0010052372
0.0010041585
0.0010032857
0.001002599
0.0010020711
0.0010016696
0.0010013511
0.0010010658
0.0010008038
0.0010005959
0.0010003821
0.00099985949
1.2965093e-07
8.2128688e-06
3.684684e-06
4.8606705e-06
3.6141377e-06
4.0400181e-06
4.0068552e-06
3.8512376e-06
4.1253085e-06
3.7480054e-06
3.6387552e-06
3.5209394e-06
3.4645082e-06
3.4446036e-06
3.459429e-06
3.4906675e-06
3.555659e-06
3.6502269e-06
3.773589e-06
3.9259902e-06
4.1088955e-06
4.3243171e-06
4.5755785e-06
4.8660869e-06
5.1892589e-06
5.5697617e-06
6.0062161e-06
6.5067229e-06
7.0814852e-06
7.7426775e-06
8.5051501e-06
9.3881063e-06
1.0415058e-05
1.161548e-05
1.3025606e-05
1.4689003e-05
1.6662529e-05
1.9015211e-05
2.1833857e-05
2.5228501e-05
2.933065e-05
3.4307663e-05
4.0364861e-05
4.7750451e-05
5.6773745e-05
6.7814399e-05
8.2062171e-05
9.8780358e-05
0.00011930133
0.0001445163
0.00017549918
0.00021562734
0.00026284577
0.0003209692
0.00039252689
0.00048520658
0.00059459188
0.00072943267
0.00089574225
0.0010119575
0.0010112987
0.0010106084
0.0010098805
0.0010091111
0.0010082977
0.0010074365
0.0010065195
0.0010055383
0.0010045036
0.0010035238
0.0010027556
0.0010021514
0.0010016881
0.0010013424
0.0010010771
0.0010008362
0.0010006
0.0010004242
0.0010002793
0.00099983202
1.2173409e-07
7.3830358e-06
3.2354883e-06
4.2040254e-06
3.2138038e-06
3.4080344e-06
3.5494772e-06
3.2668344e-06
3.3950911e-06
3.1248773e-06
3.0376118e-06
2.9673893e-06
2.9435347e-06
2.9521254e-06
2.9760728e-06
3.0374394e-06
3.1272214e-06
3.2442087e-06
3.3884783e-06
3.5609623e-06
3.7636335e-06
3.9987635e-06
4.2618829e-06
4.5701145e-06
4.9226773e-06
5.3252413e-06
5.7846407e-06
6.309281e-06
6.9095876e-06
7.5985181e-06
8.3914097e-06
9.3082937e-06
1.0373758e-05
1.1618759e-05
1.3025734e-05
1.4738619e-05
1.6772709e-05
1.9200638e-05
2.2246047e-05
2.5787115e-05
3.0071009e-05
3.5273059e-05
4.161222e-05
4.9350034e-05
5.881159e-05
7.0399478e-05
8.4607805e-05
0.00010204319
0.00012455402
0.0001510812
0.00018369257
0.00022380291
0.00027574404
0.00033697259
0.00041237127
0.00051017556
0.00062547267
0.00076760997
0.00094290719
0.0010115151
0.001010819
0.0010100885
0.0010093222
0.0010085148
0.0010076634
0.001006766
0.0010058188
0.0010048197
0.0010037964
0.0010029603
0.0010022879
0.0010017595
0.0010013555
0.0010010589
0.0010008398
0.0010006436
0.0010004387
0.0010002887
0.0010001996
0.0009999413
1.1534464e-07
5.3588322e-06
2.8506495e-06
3.6089397e-06
2.8657328e-06
2.8253146e-06
3.0934338e-06
2.7374142e-06
2.768202e-06
2.593098e-06
2.5348847e-06
2.5037355e-06
2.5022254e-06
2.5299955e-06
2.5896705e-06
2.6771523e-06
2.790511e-06
2.9295224e-06
3.0949908e-06
3.2882785e-06
3.5066681e-06
3.7610203e-06
4.0514563e-06
4.382009e-06
4.7575122e-06
5.1838428e-06
5.6681598e-06
6.2192056e-06
6.8477422e-06
7.5507e-06
8.3720461e-06
9.3202563e-06
1.0420921e-05
1.1706107e-05
1.3215925e-05
1.5000531e-05
1.7121948e-05
1.9657826e-05
2.2704531e-05
2.6381151e-05
3.0835582e-05
3.6511095e-05
4.3170018e-05
5.1307175e-05
6.1264511e-05
7.3467238e-05
8.8438561e-05
0.00010682281
0.00013060032
0.00015859197
0.0001930193
0.00023537534
0.00029029923
0.00035498481
0.00043466639
0.00053285032
0.00066005698
0.00081036738
0.00099574478
0.0010110596
0.0010103254
0.0010095576
0.001008756
0.0010079146
0.0010070289
0.0010060975
0.0010051217
0.0010041148
0.0010031902
0.0010024623
0.0010018792
0.00100142
0.0010010712
0.0010008184
0.001000637
0.0010004801
0.0010003144
0.0010001977
0.0010001475
0.0010000017
1.1013281e-07
3.9859101e-06
2.5049814e-06
3.058615e-06
2.4289678e-06
2.3351696e-06
2.6162592e-06
2.2667252e-06
2.2477372e-06
2.1469824e-06
2.1209563e-06
2.1167497e-06
2.1446614e-06
2.203993e-06
2.2906174e-06
2.4021482e-06
2.5378658e-06
2.6982315e-06
2.8818867e-06
3.0947821e-06
3.3379291e-06
3.6141582e-06
3.9269244e-06
4.2804376e-06
4.6797814e-06
5.1310891e-06
5.6418116e-06
6.2117195e-06
6.8670165e-06
7.6151327e-06
8.4733442e-06
9.4631148e-06
1.0611499e-05
1.1952475e-05
1.3528648e-05
1.5393123e-05
1.7611923e-05
2.0267207e-05
2.3461214e-05
2.7320836e-05
3.2003349e-05
3.7702733e-05
4.4991189e-05
5.3567027e-05
6.4068766e-05
7.6945987e-05
9.2752415e-05
0.00011217129
0.00013604538
0.00016689781
0.00020330045
0.00024810167
0.0003032636
0.00037469111
0.00045903257
0.00056298604
0.00069779737
0.00085706086
0.0010113525
0.0010105935
0.0010098216
0.0010090192
0.0010081846
0.001007313
0.001006398
0.0010054375
0.0010044426
0.0010034521
0.0010026612
0.0010020283
0.0010015251
0.0010011287
0.0010008305
0.0010006186
0.001000467
0.0010003391
0.0010002123
0.0010001361
0.0010001139
0.0010000267
1.0457182e-07
3.5215854e-06
2.1395361e-06
2.5509294e-06
2.0705732e-06
1.9246685e-06
2.1293275e-06
1.8562856e-06
1.8270393e-06
1.7829389e-06
1.7847545e-06
1.8126125e-06
1.8730282e-06
1.9596687e-06
2.0700974e-06
2.2033925e-06
2.3597617e-06
2.5383704e-06
2.7439227e-06
2.97754e-06
3.2417448e-06
3.5396001e-06
3.8747724e-06
4.2516436e-06
4.6754783e-06
5.1526345e-06
5.6845404e-06
6.2905106e-06
6.9779561e-06
7.7613372e-06
8.6588449e-06
9.6931923e-06
1.0892951e-05
1.2294043e-05
1.394169e-05
1.5892517e-05
1.8216846e-05
2.1001853e-05
2.4355987e-05
2.841333e-05
3.3340366e-05
3.9627739e-05
4.7020871e-05
5.606521e-05
6.7148069e-05
8.0744644e-05
9.7440642e-05
0.00011795868
0.00014451701
0.00017580395
0.00021429965
0.00026169211
0.00032006185
0.00039566468
0.00048495885
0.00059505443
0.00073791957
0.00090675052
0.0010109027
0.001010119
0.001009313
0.0010084789
0.0010076132
0.0010067135
0.001005775
0.0010047926
0.0010037856
0.0010029009
0.0010022028
0.0010016527
0.0010012208
0.0010008816
0.001000627
0.0010004537
0.0010003278
0.0010002206
0.0010001233
0.0010000856
0.0010000902
0.0010000448
1.0050913e-07
3.0372691e-06
1.8240775e-06
2.0396587e-06
1.7745456e-06
1.5746453e-06
1.6825481e-06
1.5112346e-06
1.4984105e-06
1.498913e-06
1.5283814e-06
1.5896975e-06
1.6768727e-06
1.7863812e-06
1.9172777e-06
2.0697593e-06
2.2437771e-06
2.4424198e-06
2.6672626e-06
2.9206274e-06
3.2052913e-06
3.5245029e-06
3.8820694e-06
4.2824967e-06
4.7311874e-06
5.2311258e-06
5.7956138e-06
6.4321515e-06
7.1528092e-06
7.9727339e-06
8.9111507e-06
9.9920859e-06
1.1245789e-05
1.2710247e-05
1.4433241e-05
1.6474869e-05
1.8910272e-05
2.1831739e-05
2.5354537e-05
2.9620626e-05
3.5035004e-05
4.140797e-05
4.9193872e-05
5.8725487e-05
7.0411006e-05
8.475346e-05
0.0001023719
0.00012403054
0.00015202979
0.00018506101
0.00022571701
0.00027578326
0.00033746713
0.00041733769
0.00051175714
0.00062822202
0.00077938958
0.00095817512
0.0010104525
0.0010096428
0.0010088062
0.0010079438
0.00100705
0.0010061224
0.0010051629
0.0010041802
0.0010032052
0.0010024357
0.0010018161
0.001001331
0.001000959
0.0010006765
0.0010004552
0.001000316
0.0010002136
0.001000124
0.0010000502
0.0010000438
0.0010000736
0.001000057
9.8097475e-08
2.5359736e-06
1.549963e-06
1.552757e-06
1.5042031e-06
1.2770801e-06
1.3206006e-06
1.2376704e-06
1.253333e-06
1.2851559e-06
1.3480489e-06
1.435181e-06
1.543504e-06
1.6716795e-06
1.8199588e-06
1.9893496e-06
2.1807147e-06
2.3970173e-06
2.6400913e-06
2.912484e-06
3.2171185e-06
3.5573631e-06
3.937128e-06
4.3610172e-06
4.834538e-06
5.3643865e-06
5.9588177e-06
6.6280928e-06
7.3765608e-06
8.2335877e-06
9.2136271e-06
1.0342102e-05
1.1651058e-05
1.3180735e-05
1.4981521e-05
1.7186174e-05
1.9754432e-05
2.2838305e-05
2.65605e-05
3.1072443e-05
3.6560709e-05
4.3254825e-05
5.1438461e-05
6.146095e-05
7.3752753e-05
8.8844691e-05
0.00010739025
0.00013133257
0.00015959518
0.00019437139
0.00023718666
0.00028992638
0.000358283
0.00043900918
0.00053856919
0.0006614413
0.00082089824
0.0010097338
0.0010100117
0.0010091749
0.0010083102
0.0010074218
0.001006505
0.0010055545
0.0010045691
0.0010035778
0.0010027307
0.0010020472
0.0010014992
0.0010010651
0.0010007328
0.0010005057
0.0010003132
0.0010002
0.0010001186
0.0010000473
0.00099999597
0.001000012
0.0010000614
0.001000061
9.8125751e-08
2.0401923e-06
1.3192264e-06
1.1797413e-06
1.2355686e-06
1.029438e-06
1.0557886e-06
1.0361765e-06
1.0804795e-06
1.1416554e-06
1.2282888e-06
1.3345879e-06
1.4594877e-06
1.6031378e-06
1.7665984e-06
1.9513683e-06
2.1589755e-06
2.3919841e-06
2.6525694e-06
2.9433894e-06
3.267453e-06
3.6282063e-06
4.0296444e-06
4.4764701e-06
4.9743149e-06
5.5300367e-06
6.1521186e-06
6.8511687e-06
7.6405422e-06
8.5371294e-06
9.5622852e-06
1.0743062e-05
1.2113559e-05
1.3716668e-05
1.5606102e-05
1.7848892e-05
2.0528471e-05
2.3748678e-05
2.7638048e-05
3.2355735e-05
3.8098373e-05
4.5107928e-05
5.3680435e-05
6.4182752e-05
7.706571e-05
9.3654292e-05
0.00011324255
0.0001373224
0.00016694354
0.00020340324
0.0002483032
0.00030647443
0.00037516988
0.00045987746
0.00056440506
0.00070022216
0.00086089736
0.001010443
0.0010095899
0.0010087277
0.0010078379
0.0010069232
0.0010059838
0.0010050209
0.00100404
0.0010030751
0.0010023291
0.0010017237
0.0010012421
0.0010008611
0.0010005654
0.0010003471
0.0010002004
0.0010001034
0.0010000384
0.00099998528
0.00099995757
0.00099999171
0.0010000538
0.001000061
1.0141075e-07
1.5831375e-06
1.1300133e-06
9.0775356e-07
1.0793144e-06
8.2500061e-07
8.7412503e-07
8.9939269e-07
9.6616765e-07
1.0500604e-06
1.153657e-06
1.2745408e-06
1.4131024e-06
1.5703363e-06
1.74771e-06
1.9469373e-06
2.1699658e-06
2.4188235e-06
2.6961421e-06
3.0045592e-06
3.3471478e-06
3.727426e-06
4.1494749e-06
4.6181048e-06
5.1390843e-06
5.7194492e-06
6.3679217e-06
7.0954788e-06
7.9159844e-06
8.8470495e-06
9.910965e-06
1.1136042e-05
1.2558001e-05
1.4221801e-05
1.618376e-05
1.8514183e-05
2.1300497e-05
2.4651123e-05
2.87002e-05
3.3613418e-05
3.9865547e-05
4.7227462e-05
5.6230395e-05
6.7258872e-05
8.0785721e-05
9.7393619e-05
0.00011780123
0.00014289529
0.00017376736
0.00021375112
0.00026091215
0.00031901219
0.00039063684
0.00047899768
0.0005938259
0.00072961292
0.0008974882
0.0010100564
0.0010091907
0.0010083111
0.0010074039
0.0010064684
0.0010055031
0.0010045134
0.0010035286
0.0010026778
0.0010019969
0.0010014532
0.0010010234
0.0010006862
0.0010004325
0.0010002352
0.0010001091
0.0010000259
0.00099997106
0.00099993272
0.00099992669
0.00099997726
0.0010000478
0.0010000599
1.0810808e-07
1.2367133e-06
9.6762676e-07
7.6470183e-07
7.7083714e-07
7.0548424e-07
7.5160535e-07
8.1203715e-07
8.956049e-07
9.9519254e-07
1.1115036e-06
1.2444533e-06
1.3951038e-06
1.5647641e-06
1.7550207e-06
1.9676446e-06
2.2046161e-06
2.4681422e-06
2.7606948e-06
3.0850551e-06
3.4443793e-06
3.8422865e-06
4.282983e-06
4.7714391e-06
5.3136344e-06
5.9147786e-06
6.5869585e-06
7.3401762e-06
8.1961257e-06
9.1616705e-06
1.026511e-05
1.1536131e-05
1.3012163e-05
1.4740252e-05
1.6779284e-05
1.9202673e-05
2.2101634e-05
2.5589201e-05
2.9805118e-05
3.4921901e-05
4.1152302e-05
4.8758516e-05
5.8063376e-05
6.9462597e-05
8.3445474e-05
0.00010061424
0.00012279507
0.00014893813
0.00018109326
0.00022067014
0.00026941249
0.00032948344
0.00040356737
0.00049970719
0.00061346906
0.00075408357
0.00092807457
0.0010097059
0.0010088256
0.0010079301
0.0010070115
0.0010060679
0.0010050979
0.0010041072
0.0010031342
0.0010023643
0.0010017379
0.0010012394
0.0010008462
0.0010005429
0.001000335
0.0010001452
0.0010000368
0.0009999633
0.00099991519
0.00099988662
0.00099989542
0.00099995928
0.0010000414
0.0010000566
1.2251436e-07
1.2086765e-06
8.0926934e-07
5.6787988e-07
6.1239923e-07
6.1518946e-07
6.7905144e-07
7.5792279e-07
8.5472778e-07
9.6621865e-07
1.0934078e-06
1.237105e-06
1.3985985e-06
1.5792915e-06
1.780798e-06
2.0049157e-06
2.253655e-06
2.5292643e-06
2.8342658e-06
3.1715e-06
3.5441864e-06
3.9560099e-06
4.4112451e-06
4.9149324e-06
5.4731307e-06
6.0932611e-06
6.7845658e-06
7.5586948e-06
8.4304525e-06
9.4186886e-06
1.0547371e-05
1.1846933e-05
1.3355791e-05
1.5122254e-05
1.7206762e-05
1.9684634e-05
2.2649404e-05
2.621687e-05
3.053007e-05
3.5765394e-05
4.2140219e-05
5.027996e-05
5.9873216e-05
7.1622061e-05
8.6030026e-05
0.00010371659
0.00012544637
0.00015216366
0.00018503572
0.00022550523
0.00027536339
0.00033994133
0.00041632641
0.00051061863
0.00062713524
0.00077127541
0.00094979431
0.0010094189
0.0010085208
0.0010076055
0.0010066692
0.0010057112
0.001004733
0.0010037504
0.0010028417
0.0010021271
0.0010015473
0.001001086
0.0010007218
0.0010004421
0.0010002302
0.0010000812
0.00099997918
0.00099991362
0.00099987105
0.0009998491
0.00099986244
0.00099992358
0.0010000049
0.0010000341
1.1482605e-07
7.1598432e-07
6.4104142e-07
4.7010675e-07
5.1310334e-07
5.5898816e-07
6.376837e-07
7.2998923e-07
8.3729883e-07
9.5893549e-07
1.0959802e-06
1.2494766e-06
1.4207398e-06
1.6112305e-06
1.8225972e-06
2.0566846e-06
2.3155573e-06
2.6014931e-06
2.9171235e-06
3.2653365e-06
3.6494195e-06
4.0731263e-06
4.5408016e-06
5.05756e-06
5.6295414e-06
6.2642618e-06
6.9710805e-06
7.7618052e-06
8.6585213e-06
9.6694338e-06
1.0823843e-05
1.2152941e-05
1.3696049e-05
1.550257e-05
1.7634256e-05
2.0168014e-05
2.319929e-05
2.6846213e-05
3.1254692e-05
3.6604648e-05
4.3117685e-05
5.1066437e-05
6.0786081e-05
7.2690373e-05
8.728842e-05
0.00010520831
0.00012722542
0.000155652
0.00018920851
0.00023051376
0.00028139821
0.00034413305
0.00042154563
0.00051716275