/*--------------------------------*- C++ -*----------------------------------*\
| =========                 |                                                 |
| \\      /  F ield         | OpenFOAM: The Open Source CFD Toolbox           |
|  \\    /   O peration     | Version:  2512                                  |
|   \\  /    A nd           | Website:  www.openfoam.com                      |
|    \\/     M anipulation  |                                                 |
\*---------------------------------------------------------------------------*/
FoamFile
{
    version     2.0;
    format      ascii;
    arch        "LSB;label=32;scalar=64";
    class       volScalarField;
    location    "0.145";
    object      omega;
}
// * * * * * * * * * * * * * * * * * * * * * * * * * * * * * * * * * * * * * //

dimensions      [0 0 -1 0 0 0 0];

internalField   nonuniform List<scalar> 
16000
(
1462.5383
1944.3591
1081.2906
643.73259
453.03629
315.42127
239.15674
180.4131
145.40912
117.72201
100.11029
85.696302
75.048306
66.129259
58.855073
52.720452
47.540259
43.120026
39.320656
36.030742
33.166803
30.658242
28.44691
26.486473
24.739532
23.176997
21.77477
20.514239
19.379635
18.356568
17.43201
16.595683
15.839403
15.156238
14.540274
13.986015
13.488287
13.042206
12.643683
12.289283
11.975136
11.697159
11.452381
11.238104
11.051263
10.88873
10.748079
10.627006
10.523303
10.434876
10.359851
10.296589
10.243561
10.199421
10.162994
10.13338
10.109981
10.092553
10.081403
10.077177
10.077759
10.07789
10.077427
10.076578
10.07521
10.073268
10.07071
10.067506
10.063597
10.058863
10.053082
10.045838
10.036903
10.028331
10.021791
10.016762
10.013354
10.017506
10.015483
10.030933
1465.8612
1922.0926
1070.9233
643.95004
453.34283
318.3418
240.27354
182.3129
146.25537
118.76624
100.66141
86.268782
75.414348
66.4471
59.084995
52.899298
47.671318
43.215571
39.388319
36.076227
33.195012
30.673806
28.453474
26.486969
24.735852
23.170647
21.766556
20.504607
19.369103
18.345898
17.421695
16.58586
15.830062
15.147257
14.531561
13.977545
13.480144
13.034412
12.636071
12.2818
11.968027
11.690449
11.445939
11.231914
11.045488
10.883381
10.743124
10.622431
10.519116
10.431083
10.356424
10.293511
10.240813
10.196984
10.160826
10.131397
10.108058
10.090466
10.078682
10.073263
10.073371
10.073455
10.072894
10.071958
10.070517
10.068511
10.065889
10.06262
10.058654
10.053879
10.048109
10.040984
10.032257
10.024191
10.018089
10.013354
10.010738
10.012944
10.015972
10.031842
1476.5498
1909.5822
1057.781
640.07732
450.18226
318.59168
239.23528
182.51926
145.83884
118.9425
100.52359
86.294274
75.32159
66.35777
58.960616
52.762051
47.522117
43.060322
39.231171
35.919576
33.040821
30.524174
28.309902
26.350715
24.607381
23.050331
21.654296
20.400029
19.271849
18.255962
17.339006
16.510076
15.76077
15.083948
14.473772
13.924855
13.43227
12.991113
12.596928
12.246365
11.936232
11.662109
11.420687
11.209405
11.025628
10.86597
10.727914
10.60919
10.50765
10.421225
10.347983
10.286325
10.234727
10.191868
10.156548
10.127804
10.104979
10.087707
10.075922
10.069894
10.069402
10.069359
10.068649
10.067571
10.066004
10.063881
10.061147
10.057767
10.053698
10.048833
10.043009
10.035935
10.027383
10.019894
10.014277
10.010037
10.007829
10.009263
10.014439
10.029411
1491.143
1906.1046
1046.6112
636.50817
446.62441
318.64728
237.9041
182.58447
145.28224
119.01961
100.33444
86.258294
75.187976
66.221438
58.796098
52.586309
47.33763
42.87216
39.043521
35.7347
32.860396
30.350166
28.14364
26.193412
24.459388
22.911951
21.525392
20.280167
19.160522
18.153063
17.244443
16.423465
15.681664
15.011784
14.40803
13.865046
13.378027
12.942175
12.552881
12.206631
11.900678
11.630546
11.392736
11.184608
11.00385
10.846984
10.711432
10.594937
10.495383
10.410753
10.339084
10.278808
10.228411
10.186601
10.152187
10.124188
10.10192
10.084998
10.073301
10.066956
10.065788
10.065565
10.064674
10.063421
10.061695
10.059428
10.056554
10.053037
10.048838
10.043858
10.037949
10.030906
10.0225
10.015598
10.010501
10.006781
10.004817
10.006031
10.01296
10.024637
1498.9212
1912.0859
1038.2688
633.07278
442.31866
317.96324
235.89404
182.16098
144.35284
118.82076
99.958654
86.04694
74.916571
65.953854
58.517461
52.307222
47.060603
42.600351
38.780162
35.481211
32.617524
30.119174
27.925207
25.988288
24.267529
22.733342
21.359642
20.126638
19.018405
18.021978
17.124153
16.313439
15.581342
14.920467
14.325075
13.789823
13.310013
12.880998
12.498104
12.157494
11.856894
11.591851
11.358717
11.154631
10.977674
10.824314
10.691899
10.578185
10.481078
10.398645
10.328886
10.27028
10.221321
10.180754
10.147409
10.120297
10.098714
10.082258
10.070775
10.064285
10.062558
10.062091
10.060985
10.059519
10.057599
10.055153
10.05211
10.048426
10.044067
10.038946
10.032914
10.025873
10.017688
10.011387
10.006834
10.00363
10.0019
10.003097
10.010952
10.020559
1518.9099
1926.8268
1034.2876
630.29567
438.42507
316.65434
233.41267
181.33075
143.16137
118.38547
99.440838
85.682217
74.526739
65.572112
58.139021
51.937788
46.702293
42.254858
38.449787
35.166773
32.318993
29.837256
27.660046
25.74013
24.036128
22.518424
21.160604
19.942694
18.848501
17.865479
16.980704
16.182374
15.462004
14.812033
14.226788
13.700932
13.229847
12.80905
12.433936
12.100225
11.806037
11.547044
11.319548
11.120305
10.947829
10.798592
10.669858
10.5594
10.465124
10.385224
10.317656
10.260953
10.213624
10.174453
10.142305
10.116191
10.095388
10.079479
10.068296
10.061786
10.059639
10.058879
10.057525
10.055817
10.053672
10.05102
10.047783
10.043908
10.039365
10.034082
10.027902
10.02082
10.012979
10.007292
10.003302
10.000603
9.9991483
10.000404
10.008453
10.016396
1527.7371
1947.396
1034.0825
627.63612
434.61294
314.7158
230.84687
180.12666
141.83607
117.72095
98.790337
85.162869
74.014441
65.07376
57.657165
51.474618
46.259223
41.832348
38.048982
34.788124
31.961741
29.501555
27.345618
25.446127
23.762593
22.264846
20.926153
19.726442
18.649161
17.682131
16.812862
16.02922
15.322774
14.685768
14.112601
13.59794
13.137226
12.726114
12.360215
12.034904
11.748247
11.496267
11.275391
11.081838
10.91452
10.77001
10.64549
10.538755
10.447676
10.370628
10.30551
10.250928
10.205405
10.167769
10.13693
10.111912
10.091976
10.076688
10.065873
10.059444
10.056999
10.055905
10.054277
10.052298
10.049902
10.047017
10.043566
10.039481
10.034732
10.029269
10.02293
10.015742
10.008446
10.003379
9.999956
9.9977526
9.9966228
9.9980063
10.00567
10.01269
1539.1859
1971.061
1034.9267
624.61698
430.77143
312.12969
228.22162
178.68316
140.35863
116.83544
98.02215
84.496422
73.379686
64.459918
57.071193
50.9165
45.729747
41.331177
37.575295
34.34277
31.543394
29.109801
26.980032
25.102513
23.443318
21.969255
20.653202
19.475086
18.417904
17.469742
16.618711
15.852316
15.162237
14.540481
13.981528
13.480044
13.031525
12.631716
12.276497
11.961843
11.683888
11.43986
11.226555
11.039651
10.878132
10.738907
10.619102
10.516521
10.428963
10.355047
10.292604
10.240327
10.19676
10.160773
10.131333
10.107488
10.088492
10.073886
10.063491
10.057214
10.054583
10.053123
10.051197
10.048927
10.046256
10.043119
10.039434
10.035126
10.030153
10.024493
10.018011
10.010658
10.004129
9.9996888
9.9968293
9.9951105
9.9943301
9.9958702
10.002951
10.009225
1556.9211
1995.4144
1031.6683
620.79664
425.82526
308.85178
224.59305
176.84124
138.46337
115.77187
97.130817
83.680717
72.614729
63.725339
56.375698
50.257419
45.107937
40.746025
37.020507
33.822443
31.05604
28.654437
26.556629
24.709943
23.079557
21.633362
20.343768
19.190841
18.157104
17.230759
16.400714
15.654114
14.982819
14.378548
13.835869
13.349454
12.91485
12.527891
12.184514
11.880673
11.612754
11.377697
11.1729
10.994137
10.83904
10.705599
10.591042
10.49301
10.409261
10.338708
10.279123
10.229299
10.187806
10.153555
10.12558
10.102965
10.084962
10.07109
10.06115
10.055068
10.052337
10.050493
10.048251
10.045671
10.042708
10.039301
10.03537
10.030831
10.025626
10.019746
10.013158
10.005777
10.000073
9.9962636
9.9939564
9.9927138
9.9922921
9.9939716
10.000317
10.006298
1567.1986
2018.5568
1022.0829
615.91642
419.16755
305.16446
220.20224
174.56131
136.61941
114.5148
96.106558
82.710423
71.711544
62.862019
55.562557
49.484387
44.379745
40.063352
36.382806
33.227799
30.50205
28.13889
26.078726
24.267379
22.670567
21.256594
19.997463
18.873513
17.866783
16.965396
16.159171
15.435042
14.785069
14.200618
13.676357
13.206953
12.788005
12.415434
12.085336
11.793725
11.536904
11.311673
11.115954
10.945225
10.797258
10.670062
10.561618
10.468487
10.388853
10.321844
10.265265
10.218
10.178665
10.146207
10.119734
10.098381
10.081406
10.068306
10.058848
10.052978
10.050204
10.047966
10.045395
10.042496
10.039229
10.03554
10.031352
10.026577
10.021142
10.015027
10.008337
10.00125
9.9963167
9.9931346
9.9913619
9.9905885
9.9905379
9.9922901
9.9979181
10.003408
1579.7009
2039.6539
1011.828
609.99288
410.85885
301.07103
215.66289
172.05959
134.65106
113.07865
94.93623
81.578529
70.658239
61.849195
54.608929
48.592148
43.546182
39.286843
35.659998
32.556666
29.879269
27.561335
25.545029
23.774853
22.216671
20.839465
19.615047
18.524077
17.54814
16.675076
15.8953
15.196382
14.570341
14.008093
13.504405
13.053943
12.652361
12.295647
11.980067
11.701729
11.457027
11.242553
11.056608
10.894639
10.754267
10.633471
10.530792
10.442916
10.367978
10.304647
10.251226
10.206591
10.169462
10.138824
10.113863
10.093778
10.077844
10.065542
10.056589
10.050926
10.048128
10.045499
10.042592
10.039368
10.03579
10.031811
10.027359
10.022346
10.016694
10.010357
10.003507
9.9970969
9.9928958
9.9903273
9.9890662
9.9887485
9.9891199
9.9909653
9.9958742
10.000784
1592.4504
2060.0513
997.02268
602.41775
401.29107
296.55609
210.92698
169.30913
132.6605
111.46342
93.592057
80.254047
69.416427
60.679691
53.517703
47.576801
42.603044
38.412656
34.850048
31.807856
29.187263
26.921738
24.95572
23.232737
21.718698
20.382669
19.197464
18.143713
17.202556
16.361541
15.609559
14.938625
14.339178
13.801562
13.320635
12.891046
12.508527
12.169112
11.869277
11.605246
11.373543
11.17134
10.995648
10.842834
10.710485
10.596453
10.499758
10.417159
10.346588
10.28706
10.237141
10.195218
10.160321
10.131503
10.108033
10.089197
10.074293
10.062798
10.054375
10.048904
10.046053
10.043047
10.039802
10.036253
10.032364
10.028091
10.023374
10.018124
10.012263
10.005767
9.9987535
9.9933415
9.989835
9.9878583
9.9870856
9.9871943
9.9879861
9.9899548
9.9942526
9.9987596
1604.6081
2078.3618
978.38194
593.9659
391.43329
291.6417
206.12074
166.35897
130.61445
109.64799
92.007991
78.719277
67.990091
59.346605
52.281646
46.433965
41.546908
37.438735
33.951665
30.980391
28.425742
26.22055
24.311146
22.641813
21.178083
19.886011
18.744691
17.732617
16.830346
16.025657
15.307394
14.667126
14.096742
13.585985
13.12975
12.722655
12.360567
12.039532
11.756285
11.507256
11.288886
11.098273
10.933316
10.790024
10.666036
10.559476
10.468742
10.391533
10.325551
10.269715
10.222907
10.183968
10.151345
10.124334
10.102312
10.08468
10.070771
10.06007
10.052203
10.046919
10.043933
10.040571
10.036992
10.033123
10.028926
10.024362
10.019379
10.0139
10.007834
10.00126
9.9945953
9.9899955
9.9871497
9.9857346
9.9854278
9.9859259
9.9870986
9.9892439
9.9930774
9.9971874
1616.7602
2090.7533
955.83638
584.94036
381.07682
286.36804
201.32046
163.21309
128.44227
107.53555
90.166414
76.962031
66.365365
57.840855
50.89402
45.15844
40.374416
36.362562
32.963693
30.073427
27.594685
25.458806
23.610188
22.001141
20.594773
19.356407
18.264264
17.298656
16.439532
15.674745
14.992946
14.38589
13.846377
13.364344
12.934417
12.551111
12.210533
11.908701
11.642593
11.409002
11.204462
11.02595
10.871739
10.738012
10.622303
10.522563
10.437793
10.365918
10.304924
10.252893
10.209073
10.172701
10.142573
10.117389
10.096762
10.080265
10.0673
10.057346
10.05005
10.044995
10.04173
10.038037
10.034131
10.029951
10.025458
10.020608
10.015362
10.009667
10.00343
9.9967424
9.9909389
9.987086
9.9848464
9.9839527
9.9840883
9.9849388
9.9864288
9.9888051
9.9924192
9.9962902
1628.9428
2091.8819
929.58095
575.27644
370.33813
280.76274
196.60023
159.7899
126.02203
105.13126
88.038661
74.963619
64.529078
56.151815
49.347111
43.74492
39.082509
35.181893
31.885669
29.084143
26.691678
24.63545
22.861987
21.321315
19.979279
18.800306
17.762653
16.847622
16.035524
15.314055
14.671667
14.100043
13.591359
13.13933
12.736887
12.378257
12.059925
11.777865
11.529205
11.311234
11.120614
10.955054
10.811479
10.687196
10.579847
10.487103
10.408076
10.341147
10.284518
10.236681
10.195861
10.161854
10.133838
10.110681
10.091434
10.075992
10.063905
10.054626
10.047868
10.043136
10.039423
10.035418
10.031197
10.026719
10.021942
10.016821
10.011316
10.005408
9.9990964
9.9925625
9.9877791
9.9846166
9.9829247
9.9825012
9.98305
9.9842222
9.9859521
9.988576
9.992203
9.995947
1641.2968
2070.2973
899.88072
565.00326
359.25412
274.83134
191.95346
155.9609
123.27591
102.38948
85.594179
72.700694
62.464673
54.268012
47.633347
42.187913
37.66874
33.891271
30.713849
28.022191
25.730172
23.76496
22.075552
20.611494
19.340338
18.226978
17.248849
16.386252
15.624175
14.94859
14.34761
13.81353
13.338789
12.917182
12.542714
12.209022
11.913083
11.650902
11.419543
11.21702
11.039729
10.885728
10.752665
10.63758
10.538425
10.45318
10.37982
10.317648
10.264985
10.220814
10.183326
10.151608
10.12546
10.104038
10.086336
10.071888
10.060613
10.051935
10.045595
10.041123
10.037008
10.032698
10.028178
10.023416
10.018371
10.012998
10.007256
10.001135
9.994775
9.9890289
9.9850895
9.9825793
9.9813785
9.9813661
9.9822865
9.9837598
9.9856718
9.9884973
9.9923341
9.9960836
1653.9032
2035.0486
868.90867
554.16624
347.88071
268.48595
187.07101
151.69711
120.08867
99.261052
82.797948
70.147573
60.155626
52.179606
45.746362
40.478578
36.126621
32.503641
29.466009
26.900119
24.723034
22.860624
21.264632
19.885073
18.688344
17.645266
16.731219
15.926773
15.216657
14.588603
14.03009
13.533969
13.09303
12.701575
12.35464
12.045587
11.771664
11.529165
11.314817
11.127356
10.963156
10.820288
10.697162
10.590799
10.499124
10.420477
10.353174
10.295594
10.246626
10.20576
10.171195
10.142015
10.117571
10.097681
10.08132
10.067969
10.057434
10.049313
10.043276
10.038942
10.034478
10.029873
10.02507
10.020041
10.014743
10.009138
10.003192
9.9969318
9.9906433
9.9860188
9.9828518
9.9809495
9.9801954
9.9805357
9.9817684
9.9835161
9.985606
9.9885985
9.9926634
9.9965599
1666.5878
2003.8654
837.35819
542.68888
336.21875
261.18522
182.02458
146.89222
116.3427
95.685398
79.612999
67.279203
57.586552
49.879124
43.675167
38.630497
34.479859
31.036557
28.160721
25.738175
23.689484
21.941001
20.443415
19.15525
18.040899
17.071457
16.223645
15.4785
14.820872
14.240316
13.724236
13.265808
12.858288
12.496083
12.174424
11.889196
11.636421
11.413007
11.216107
11.043014
10.891451
10.759141
10.645255
10.547133
10.462517
10.389873
10.327722
10.274706
10.229586
10.191708
10.159797
10.132853
10.110242
10.091684
10.076542
10.064206
10.054359
10.046782
10.040982
10.036591
10.031838
10.026953
10.021884
10.016604
10.011071
10.005254
9.9991357
9.9928325
9.9872918
9.9834847
9.9810226
9.9796871
9.9793513
9.979996
9.9814723
9.983442
9.9857184
9.9888345
9.9930172
9.9970994
1678.8508
1955.8932
804.72748
530.26529
324.1633
252.69155
176.61412
141.42421
111.92404
91.598755
76.005147
64.075784
54.741051
47.355185
41.448511
36.669419
32.755361
29.518864
26.825168
24.561892
22.649354
21.024329
19.635449
18.442327
17.412136
16.517524
15.736214
15.050236
14.444292
13.908521
13.43365
13.011606
12.636275
12.302613
12.00632
11.743487
11.510595
11.304635
11.123058
10.963588
10.824161
10.702738
10.597391
10.506854
10.4288
10.361752
10.304353
10.255413
10.213863
10.178731
10.149224
10.124353
10.103474
10.08609
10.071989
10.060496
10.051355
10.044309
10.038793
10.034092
10.029105
10.023962
10.018641
10.013126
10.00738
10.001374
9.9951687
9.9890423
9.9845432
9.9814274
9.9795561
9.978735
9.9788024
9.9797172
9.981374
9.9834856
9.9859384
9.9891886
9.9933487
9.9975641
1689.8891
1894.0331
770.44415
516.39185
310.94411
242.83526
170.5169
135.14674
106.72989
86.943687
71.952417
60.523269
51.642105
44.66096
39.107226
34.637592
30.993694
27.987152
25.48809
23.396622
21.63333
20.136715
18.858873
17.761964
16.815569
15.994469
15.277529
14.647207
14.091724
13.600225
13.16432
12.776699
12.431606
12.12442
11.851411
11.6093
11.394902
11.2053
11.038106
10.891086
10.762399
10.650437
10.553801
10.470132
10.398063
10.336133
10.283059
10.23773
10.199189
10.166886
10.139491
10.116435
10.097083
10.080948
10.067767
10.056997
10.048408
10.041786
10.036517
10.031496
10.026303
10.020934
10.015382
10.009644
10.003708
9.9975433
9.9912904
9.9860621
9.9823352
9.9798328
9.9784271
9.9780271
9.9784887
9.9796465
9.981448
9.9836347
9.9861951
9.9895711
9.9936977
9.9979342
1698.4936
1836.179
733.54801
500.45935
296.83345
231.40297
163.26014
127.89466
100.68995
81.699191
67.458608
56.671471
48.358688
41.86057
36.714251
32.589874
29.24193
26.47857
24.189605
22.276173
20.664588
19.297529
18.130148
17.127403
16.261667
15.510452
14.853382
14.277079
13.768596
13.318015
12.918216
12.562454
12.245414
11.962753
11.711046
11.487595
11.28994
11.115133
10.961088
10.825635
10.706922
10.603992
10.514464
10.437064
10.370356
10.313048
10.263921
10.221948
10.186274
10.156161
10.130675
10.109213
10.09122
10.076221
10.063874
10.053746
10.045597
10.039253
10.034133
10.028847
10.023463
10.017906
10.012158
10.00621
10.000097
9.9939111
9.9879111
9.9836342
9.9806108
9.9786715
9.9776509
9.9775128
9.9783484
9.9797171
9.9816405
9.9838794
9.9865043
9.9899605
9.9940581
9.9982108
1701.8869
1775.2017
693.80953
480.73474
281.60987
218.07553
154.37634
119.54507
93.820373
75.927472
62.61946
52.636518
44.992386
39.042721
34.344234
30.587073
27.544601
25.038167
22.961446
21.225964
19.763663
18.522384
17.461277
16.548287
15.758159
15.070881
14.470289
13.942826
13.47751
13.064199
12.697032
12.370043
12.078436
11.818197
11.585983
11.379185
11.196432
11.034723
10.892287
10.767291
10.657934
10.562486
10.479522
10.407681
10.345708
10.292471
10.246871
10.207794
10.174764
10.146633
10.122802
10.1027
10.085862
10.071901
10.060297
10.05076
10.043015
10.03683
10.031705
10.026208
10.020636
10.014913
10.009022
10.00292
9.9966096
9.9903349
9.9852955
9.9816697
9.9792477
9.977834
9.9772428
9.9772261
9.9783329
9.9798782
9.9818979
9.9841966
9.9868814
9.9903576
9.9944
9.9984003
1695.314
1708.4433
650.69273
454.89028
265.09684
202.51983
143.64641
110.14749
86.292331
69.770342
57.6279
48.568672
41.662664
36.301419
32.072454
28.690915
25.95298
23.701045
21.83144
20.266709
18.945811
17.822373
16.860102
16.030417
15.310662
14.682862
14.13267
13.648333
13.22012
12.840143
12.501887
12.200278
11.931068
11.690767
11.476416
11.285477
11.115772
10.965492
10.832901
10.716449
10.614663
10.526029
10.448868
10.382
10.324201
10.274446
10.232068
10.195711
10.164669
10.138295
10.115939
10.097008
10.081222
10.067992
10.057017
10.047993
10.040682
10.034669
10.029303
10.023662
10.01791
10.012012
10.005978
9.9998186
9.9935751
9.9875191
9.9832486
9.9801727
9.9781881
9.9771331
9.9768853
9.9773408
9.978418
9.980101
9.9821786
9.9845385
9.9872999
9.9907755
9.9947284
9.9985406
1672.7513
1630.7492
604.43627
422.21749
247.32089
184.56719
131.32902
100.05293
78.467655
63.556666
52.703651
44.630101
38.489112
33.726293
29.967314
26.954854
24.508402
22.497573
20.821756
19.414569
18.222689
17.205695
16.332025
15.576696
14.91968
14.344867
13.839464
13.393591
12.998603
12.647555
12.334453
12.054812
11.804828
11.581394
11.381893
11.20408
11.045983
10.905823
10.781981
10.672962
10.577462
10.494652
10.422527
10.360015
10.306008
10.259494
10.219563
10.185385
10.156101
10.131151
10.110126
10.092279
10.077221
10.064603
10.054113
10.045513
10.03844
10.032558
10.027021
10.021274
10.015397
10.009352
10.003138
9.9967965
9.9905592
9.985435
9.9817054
9.9791194
9.9775095
9.9767573
9.9766945
9.9774161
9.9786217
9.9803636
9.982463
9.984859
9.9876888
9.9911636
9.9950177
9.9986545
1626.0503
1538.0992
556.23572
383.49847
229.39654
164.52846
118.13877
89.894906
70.799703
57.603244
48.06431
40.974983
35.583783
31.398228
28.087041
25.423392
23.249027
21.451596
19.949574
18.681996
17.603452
16.679148
15.882006
15.190588
14.587617
14.058848
13.591828
13.178616
12.811522
12.485097
12.193355
11.932367
11.69872
11.489623
11.302718
11.135981
10.987629
10.856057
10.739788
10.637446
10.547742
10.469453
10.401402
10.342301
10.291179
10.247067
10.209154
10.176887
10.149209
10.125579
10.105461
10.088404
10.073987
10.061844
10.051774
10.043389
10.036462
10.030617
10.024921
10.019076
10.013118
10.00702
10.000776
9.9944345
9.9883024
9.9838329
9.9805669
9.9783831
9.9771029
9.9765857
9.976542
9.9775683
9.9788574
9.9806347
9.9827318
9.985132
9.9879855
9.9914469
9.9952445
9.9987253
1547.2448
1435.0451
507.22338
343.51315
205.47504
145.25918
105.00601
80.347634
63.730995
52.21336
43.91807
37.753101
33.053276
29.390116
26.477937
24.122424
22.18829
20.579433
19.226393
18.078221
17.095891
16.249687
15.516332
14.877356
14.317878
13.825765
13.391025
13.005379
12.662104
12.355609
12.081256
11.835396
11.614967
11.41744
11.240671
11.082809
10.942213
10.817389
10.706944
10.60957
10.52404
10.449276
10.384567
10.328306
10.279634
10.237638
10.201507
10.170506
10.14397
10.121255
10.10188
10.085413
10.071569
10.059852
10.050007
10.04178
10.034916
10.029044
10.023184
10.017206
10.011123
10.004924
9.9986242
9.9923502
9.9867179
9.9826716
9.9797558
9.9778518
9.9768095
9.9764815
9.976819
9.9776964
9.9790955
9.9808832
9.982979
9.9853693
9.9881802
9.9915216
9.9951894
9.9986301
1439.0976
1390.3078
461.41112
295.99904
181.76356
127.23041
93.163557
71.907046
57.622391
47.672054
40.476819
35.111354
30.998176
27.770216
25.185591
23.080432
21.340622
19.884547
18.651648
17.599757
16.695223
15.912404
15.231052
14.634976
14.111044
13.648519
13.238515
12.873718
12.548192
12.257465
11.996618
11.762464
11.552197
11.363512
11.194451
11.043319
10.908611
10.788956
10.683074
10.58975
10.507814
10.436119
10.373543
10.319155
10.272009
10.23126
10.196139
10.165982
10.140324
10.118329
10.099561
10.083579
10.070011
10.058536
10.048867
10.040751
10.033933
10.028033
10.022055
10.015963
10.009756
10.003438
9.9970534
9.9908178
9.9856724
9.9819304
9.9792859
9.9775945
9.9767149
9.9764547
9.9769528
9.9778989
9.9793238
9.9811222
9.9832278
9.9856333
9.9884163
9.9916308
9.9951282
9.998514
1312.6493
1218.8562
421.86259
253.79196
159.77909
112.23062
83.377784
65.098828
52.798499
44.173504
37.889242
33.160311
29.501691
26.604651
24.265238
22.344668
20.745833
19.399122
18.253515
17.270813
16.421985
15.684432
15.040258
14.475008
13.97681
13.535788
13.143915
12.794447
12.481822
12.201446
11.949554
11.723009
11.51923
11.336055
11.171651
11.024425
10.892958
10.775955
10.672209
10.580591
10.500081
10.429947
10.368635
10.315307
10.269049
10.229039
10.194523
10.164818
10.139316
10.117479
10.098825
10.082931
10.06943
10.058
10.048364
10.04027
10.033464
10.027564
10.021572
10.015448
10.009192
10.002804
9.9963382
9.9900662
9.9851553
9.9815708
9.9790712
9.9775101
9.9767702
9.9766024
9.9771008
9.9780971
9.9795332
9.9813348
9.9834488
9.9858651
9.9886182
9.9917215
9.9950714
9.9984214
1202.1957
1095.0783
389.60505
223.31104
143.36423
101.20613
76.13198
60.13946
49.347684
41.715362
36.098345
31.831264
28.4996
25.839119
23.674051
21.883994
20.384122
19.113241
18.026253
17.089261
16.276288
15.567048
14.945407
14.398405
13.915922
13.487638
13.106306
12.765552
12.460144
12.185728
11.938714
11.716143
11.515567
11.334943
11.172538
11.026846
10.89653
10.78036
10.677188
10.585915
10.505489
10.434896
10.373176
10.319396
10.272688
10.23224
10.197308
10.167215
10.141351
10.119173
10.100201
10.08401
10.070233
10.058546
10.048668
10.040351
10.033347
10.027315
10.021424
10.015369
10.009209
10.002927
9.9965734
9.9903786
9.9853607
9.9817333
9.9791992
9.9776204
9.9768779
9.9767148
9.9772261
9.9782188
9.9796529
9.9814554
9.9835832
9.9860153
9.9887496
9.9917715
9.9950161
9.9983563
1156.3625
1041.2262
365.78803
206.39989
132.58503
93.701963
70.713164
56.18211
46.394973
39.463878
34.34753
30.443251
27.38194
24.927306
22.922123
21.258309
19.859494
18.670422
17.650281
16.768356
16.0011
15.330114
14.740727
14.221002
13.761057
13.352614
12.988662
12.663296
12.371552
12.109289
11.873072
11.660067
11.467929
11.294706
11.138753
10.998651
10.873143
10.761083
10.661401
10.573075
10.495123
10.426595
10.366577
10.314196
10.268628
10.229104
10.194915
10.165414
10.140016
10.1182
10.099501
10.083512
10.069874
10.058276
10.048445
10.040138
10.033114
10.027037
10.021078
10.014965
10.00875
10.002421
9.9960362
9.9898675
9.9850921
9.9815795
9.9791289
9.977591
9.9768408
9.9766417
9.9772576
9.9782224
9.9796537
9.9814507
9.9835831
9.9860234
9.9887532
9.9917447
9.9949511
9.9983118
37054.214
79707.878
39492.657
10046.118
1235.6973
612.73886
435.80792
350.78241
289.01505
234.83118
191.61067
158.75744
134.25264
116.01869
102.06136
90.708304
81.081148
72.828141
65.741461
59.626443
54.309853
49.655331
45.557466
41.930985
38.710791
35.832368
33.25041
30.925022
28.824407
26.923455
25.200758
23.637247
22.216263
20.923138
19.746352
18.676226
17.704051
16.822112
16.023362
15.301384
14.650588
14.065435
13.540875
13.07235
12.65538
12.285743
11.959619
11.672983
11.422157
11.203792
11.014618
10.851518
10.711514
10.592084
10.490714
10.405155
10.334978
10.280116
10.240562
10.219003
10.211854
10.209883
10.207876
10.205096
10.201885
10.198278
10.193929
10.187345
10.178038
10.167565
10.152646
10.139844
10.111262
10.095861
10.07078
10.072672
10.031995
10.053991
9.9919012
10.013202
22241.284
69719.895
27825.054
4632.274
941.88747
532.97675
399.73224
321.76968
263.25274
212.12046
174.12565
145.46015
124.30468
108.48818
96.116183
85.774982
76.918651
69.319484
62.781221
57.114842
52.165495
47.815709
43.973167
40.562008
37.520417
34.795349
32.345374
30.133181
28.130692
26.315319
24.667311
23.168996
21.805024
20.561894
19.429299
18.398285
17.460722
16.609441
15.837833
15.139892
14.510395
13.944035
13.436067
12.982172
12.578045
12.219665
11.903384
11.625282
11.381856
11.169887
10.986205
10.827797
10.691793
10.575777
10.477319
10.39419
10.325531
10.272
10.233678
10.213366
10.206831
10.20504
10.203065
10.200351
10.197228
10.193701
10.189658
10.183781
10.175149
10.165128
10.150758
10.138102
10.11036
10.095256
10.070221
10.072338
10.031865
10.054397
9.9924302
10.013667
24181.529
49413.053
16461.367
2360.8802
833.27665
506.49817
388.15784
306.50398
250.80242
201.42589
166.66602
139.53906
119.78667
104.87269
93.080834
83.133217
74.631694
67.346581
61.07204
55.62531
50.861982
46.671966
42.967272
39.675224
36.735034
34.099431
31.728238
29.585095
27.643945
25.883115
24.283548
22.82824
21.50252
20.29347
19.191476
18.187888
17.274901
16.445654
15.693771
15.013493
14.39981
13.847536
13.35213
12.909411
12.515181
12.165554
11.856991
11.585635
11.34811
11.141281
10.962049
10.807478
10.674788
10.561656
10.465575
10.384487
10.317137
10.264632
10.227258
10.207898
10.201821
10.200187
10.198262
10.195628
10.192596
10.189156
10.185236
10.180075
10.17215
10.162606
10.148809
10.136311
10.109473
10.094591
10.069597
10.071915
10.031684
10.05472
9.9930219
10.014178
32009.026
27506.849
8494.5183
1495.5864
760.96871
482.79715
374.56131
291.60818
239.60801
190.88551
159.65856
133.70872
115.46301
101.39629
90.17862
80.621527
72.467178
65.477103
59.448952
54.208153
49.619244
45.57873
42.002864
38.822206
35.979191
33.42595
31.128463
29.050487
27.167528
25.458606
23.905328
22.491294
21.202444
20.026396
18.95418
17.977381
17.0885
16.280955
15.548573
14.885822
14.287886
13.749679
13.266862
12.835375
12.451116
12.110329
11.809577
11.545062
11.313535
11.111941
10.937247
10.786598
10.65737
10.547099
10.453469
10.374475
10.308625
10.257169
10.220775
10.202367
10.196773
10.195301
10.193431
10.190883
10.187947
10.184597
10.180748
10.176121
10.168934
10.159891
10.146694
10.134366
10.108453
10.093823
10.068899
10.071398
10.031457
10.054971
9.9936558
10.014746
36408.92
20111.092
5451.4177
1269.2508
723.03094
461.7389
363.76829
279.23891
231.2958
182.75035
154.58174
129.07834
112.15565
98.619215
87.828623
78.563105
70.684329
63.924358
58.088994
53.01063
48.560705
44.640409
41.168969
38.079323
35.315861
32.833309
30.595738
28.572709
26.739258
25.07482
23.561503
22.183363
20.926818
19.7799
18.734173
17.781342
16.914172
16.126292
15.411686
14.765007
14.181587
13.656413
13.185323
12.764345
12.389457
12.057017
11.76367
11.505662
11.279868
11.083293
10.912971
10.766125
10.640216
10.532738
10.441496
10.364548
10.300288
10.249821
10.214367
10.19673
10.191722
10.190404
10.188595
10.186139
10.183302
10.180043
10.176282
10.171955
10.165531
10.157015
10.144439
10.132295
10.107318
10.09293
10.068119
10.070787
10.031191
10.055156
9.9943181
10.015393
38525.306
16957.808
3889.208
1187.8612
698.27095
442.19698
355.86976
269.07639
224.75049
176.02732
150.53005
125.08866
109.40108
96.200346
85.781884
76.758578
69.11725
62.551785
56.880682
51.941636
47.6116
43.795395
40.414687
37.404409
34.710738
32.289792
30.105748
28.131457
26.342036
24.717397
23.24001
21.8943
20.667096
19.546771
18.525364
17.594625
16.747574
15.978003
15.280022
14.648446
14.078728
13.565903
13.105978
12.695041
12.329141
12.004737
11.718542
11.466841
11.246622
11.054948
10.888919
10.745869
10.623138
10.518406
10.429526
10.354604
10.292044
10.24253
10.207998
10.191171
10.186676
10.185492
10.183751
10.181393
10.178658
10.175492
10.171819
10.167598
10.161928
10.153964
10.14203
10.130087
10.106034
10.091906
10.067255
10.070089
10.03089
10.055281
9.9950037
10.016112
39854.575
14154.474
3116.1468
1137.9881
680.98902
428.12244
350.03295
260.73527
219.59624
170.57727
147.27034
121.68952
107.11421
94.100267
84.00666
75.178975
67.739662
61.337778
55.806167
50.986157
46.759235
43.033023
39.731129
36.790121
34.157619
31.791049
29.655927
27.723731
25.973372
24.384369
22.939329
21.622958
20.422425
19.326395
18.327321
17.416945
16.588534
15.835998
15.153554
14.536156
13.979354
13.478217
13.028905
12.627546
12.27025
11.95357
11.67427
11.42867
11.213869
11.026987
10.865229
10.725765
10.606165
10.504141
10.417591
10.344673
10.283868
10.235311
10.201682
10.185695