/*--------------------------------*- C++ -*----------------------------------*\
| =========                 |                                                 |
| \\      /  F ield         | OpenFOAM: The Open Source CFD Toolbox           |
|  \\    /   O peration     | Version:  2512                                  |
|   \\  /    A nd           | Website:  www.openfoam.com                      |
|    \\/     M anipulation  |                                                 |
\*---------------------------------------------------------------------------*/
FoamFile
{
    version     2.0;
    format      ascii;
    arch        "LSB;label=32;scalar=64";
    class       volScalarField;
    location    "0.145";
    object      p;
}
// * * * * * * * * * * * * * * * * * * * * * * * * * * * * * * * * * * * * * //

dimensions      [1 -1 -2 0 0 0 0];

internalField   nonuniform List<scalar> 
16000
(
89599.986
89725.942
89737.696
89872.029
89898.371
90025.477
90076.119
90192.668
90266.552
90377.531
90469.609
90580.544
90686.672
90801.949
90919.132
91041.783
91168.518
91299.947
91435.951
91576.619
91721.965
91871.997
92026.699
92186.032
92349.93
92518.3
92691.018
92867.93
93048.848
93233.55
93421.779
93613.243
93807.615
94004.534
94203.608
94404.412
94606.497
94809.388
95012.591
95215.6
95417.897
95618.964
95818.284
96015.352
96209.677
96400.788
96588.244
96771.632
96950.574
97124.733
97293.809
97457.546
97615.73
97768.189
97914.792
98055.446
98190.099
98318.731
98441.356
98558.018
98668.789
98773.761
98873.05
98966.79
99055.131
99138.239
99216.291
99289.477
99357.996
99422.054
99481.855
99537.613
99589.561
99637.912
99682.835
99724.94
99767.386
99784.263
99878.222
99793.301
89232.486
89375.393
89384.811
89531.147
89559.031
89697.084
89750.066
89877.909
89955.648
90076.763
90175.283
90295.211
90409.718
90533.931
90660.455
90792.679
90929.404
91071.12
91217.746
91369.34
91525.897
91687.4
91853.802
92025.028
92200.975
92381.507
92566.453
92755.609
92948.733
93145.545
93345.728
93548.928
93754.752
93962.774
94172.536
94383.549
94595.303
94807.264
95018.888
95229.622
95438.914
95646.217
95850.998
96052.744
96250.968
96445.216
96635.071
96820.154
97000.133
97174.719
97343.67
97506.79
97663.928
97814.976
97959.866
98098.57
98231.093
98357.47
98477.766
98592.071
98700.496
98803.167
98900.226
98991.832
99078.15
99159.357
99235.638
99307.184
99374.19
99436.859
99495.394
99550.003
99600.894
99648.244
99692.368
99734.175
99771.59
99802.697
99868.172
99811.358
88897.17
89055.547
89064.77
89224.342
89252.386
89404.191
89458.959
89599.148
89681.843
89813.526
89919.889
90049.48
90173.639
90307.807
90444.86
90587.837
90735.745
90888.946
91047.375
91211.049
91379.936
91553.982
91733.104
91917.188
92106.084
92299.608
92497.534
92699.599
92905.498
93114.882
93327.364
93542.512
93759.86
93978.906
94199.115
94419.929
94640.768
94861.042
95080.154
95297.51
95512.528
95724.643
95933.317
96138.045
96338.363
96533.847
96724.125
96908.874
97087.822
97260.75
97427.49
97587.922
97741.973
97889.612
98030.846
98165.717
98294.296
98416.68
98532.988
98643.357
98747.939
98846.895
98940.396
99028.618
99111.744
99189.961
99263.456
99332.42
99397.046
99457.528
99514.062
99566.841
99616.05
99661.887
99704.745
99744.913
99780.439
99816.381
99863.925
99829.541
88598.679
88767.92
88777.781
88952.828
88980.373
89148.474
89205.544
89360.067
89448.626
89592.405
89708.065
89848.641
89984.029
90129.551
90278.582
90433.707
90594.142
90760.131
90931.616
91108.579
91290.962
91478.679
91671.606
91869.582
92072.406
92279.831
92491.566
92707.272
92926.562
93149.005
93374.121
93601.391
93830.257
94060.127
94290.383
94520.389
94749.496
94977.054
95202.421
95424.97
95644.102
95859.25
96069.89
96275.547
96475.798
96670.277
96858.68
97040.761
97216.332
97385.263
97547.48
97702.954
97851.704
97993.786
98129.293
98258.342
98381.077
98497.659
98608.261
98713.068
98812.275
98906.074
98994.661
99078.232
99156.982
99231.102
99300.784
99366.213
99427.572
99485.047
99538.818
99589.056
99635.934
99679.674
99720.572
99758.499
99792.819
99829.071
99865.853
99846.624
88340.173
88524.26
88531.015
88724.717
88751.171
88937.544
88996.77
89167.37
89262.991
89420.219
89546.888
89699.563
89847.603
90005.634
90167.801
90336.202
90510.272
90690.168
90875.839
91067.238
91264.271
91466.808
91674.669
91887.629
92105.409
92327.68
92554.059
92784.107
93017.334
93253.201
93491.121
93730.464
93970.569
94210.746
94450.285
94688.472
94924.592
95157.946
95387.859
95613.69
95834.844
96050.778
96261.009
96465.119
96662.758
96853.646
97037.572
97214.395
97384.033
97546.468
97701.731
97849.903
97991.103
98125.483
98253.222
98374.521
98489.591
98598.657
98701.946
98799.686
98892.108
98979.433
99061.877
99139.65
99212.954
99281.984
99346.926
99407.959
99465.254
99518.982
99569.302
99616.359
99660.324
99701.414
99739.744
99775.103
99807.94
99842.262
99871.492
99863.985
88124.422
88326.04
88330.96
88545.56
88571.059
88777.708
88839.334
89027.759
89131.649
89303.002
89441.837
89607.086
89768.701
89940.111
90116.434
90299.278
90488.254
90683.432
90884.732
91092.049
91305.226
91524.052
91748.263
91977.536
92211.487
92449.674
92691.591
92936.675
93184.308
93433.818
93684.491
93935.577
94186.297
94435.858
94683.465
94928.33
95169.688
95406.81
95639.013
95865.672
96086.228
96300.195
96507.169
96706.825
96898.922
97083.296
97259.863
97428.609
97589.584
97742.894
97888.696
98027.183
98158.583
98283.145
98401.136
98512.832
98618.513
98718.457
98812.94
98902.226
98986.575
99066.229
99141.418
99212.359
99279.256
99342.3
99401.669
99457.529
99510.038
99559.346
99605.584
99648.875
99689.39
99727.292
99762.514
99795.018
99825.921
99856.951
99880.313
99882.476
87951.608
88174.074
88176.302
88415.516
88440.113
88671.013
88735.669
88943.349
89055.411
89240.343
89392.461
89571.124
89747.876
89934.384
90126.742
90326.045
90531.987
90744.529
90963.521
91188.77
91420.021
91656.959
91899.203
92146.301
92397.735
92652.916
92911.189
93171.839
93434.093
93697.13
93960.094
94222.102
94482.262
94739.683
94993.496
95242.864
95486.998
95725.172
95956.736
96181.121
96397.851
96606.544
96806.918
96998.784
97182.046
97356.696
97522.801
97680.501
97829.991
97971.518
98105.365
98231.846
98351.291
98464.044
98570.451
98670.857
98765.597
98854.996
98939.363
99018.992
99094.159
99165.119
99232.107
99295.34
99355.015
99411.316
99464.405
99514.433
99561.54
99605.85
99647.463
99686.486
99723.082
99757.314
99788.981
99818.387
99846.889
99873.686
99892.05
99902.918
87816.151
88063.116
88061.153
88329.975
88351.378
88608.668
88676.422
88903.301
89027.353
89228.68
89397.974
89593.038
89788.057
89992.655
90203.89
90422.438
90648.03
90880.527
91119.689
91365.215
91616.729
91873.778
92135.829
92402.27
92672.41
92945.481
93220.648
93497.012
93773.626
94049.507
94323.649
94595.041
94862.689
95125.627
95382.942
95633.785
95877.391
96113.091
96340.319
96558.625
96767.669
96967.231
97157.2
97337.568
97508.426
97669.947
97822.376
97966.019
98101.228
98228.39
98347.915
98460.226
98565.751
98664.911
98758.121
98845.776
98928.255
99005.913
99079.082
99148.069
99213.156
99274.6
99332.631
99387.456
99439.262
99488.215
99534.46
99578.127
99619.333
99658.173
99694.716
99729.061
99761.343
99791.492
99819.255
99845.369
99870.969
99892.733
99906.927
99925.952
87717.23
87992.645
87986.373
88291.443
88307.256
88593.42
88667.185
88916.328
89057.38
89277.367
89467.327
89681.587
89897.851
90123.575
90356.651
90597.403
90845.532
91100.774
91362.759
91631.036
91905.062
92184.202
92467.726
92754.813
93044.556
93335.971
93628.008
93919.564
94209.504
94496.677
94779.938
95058.169
95330.305
95595.35
95852.4
96100.661
96339.458
96568.251
96786.636
96994.349
97191.258
97377.36
97552.766
97717.693
97872.444
98017.395
98152.98
98279.674
98397.98
98508.416
98611.505
98707.763
98797.692
98881.777
98960.476
99034.22
99103.41
99168.416
99229.574
99287.191
99341.543
99392.877
99441.408
99487.328
99530.802
99571.975
99610.97
99647.892
99682.833
99715.852
99746.997
99776.357
99804.015
99829.754
99853.383
99876.082
99898.291
99914.418
99925.242
99951.991
87658.299
87966.889
87957.229
88299.485
88314.671
88633.551
88718.906
88993.291
89154.234
89394.947
89609.224
89845.881
90086.67
90336.94
90595.186
90861.425
91135.253
91416.238
91703.826
91997.36
92296.072
92599.083
92905.408
93213.965
93523.585
93833.029
94141.009
94446.205
94747.296
95042.981
95332.008
95613.203
95885.493
96147.927
96399.7
96640.162
96868.829
97085.381
97289.664
97481.679
97661.566
97829.593
97986.135
98131.654
98266.682
98391.799
98507.62
98614.776
98713.9
98805.619
98890.541
98969.25
99042.298
99110.204
99173.449
99232.475
99287.685
99339.444
99388.078
99433.879
99477.105
99517.98
99556.698
99593.424
99628.3
99661.442
99692.948
99722.897
99751.348
99778.328
99803.868
99828.048
99850.866
99871.971
99891.366
99910.592
99928.955
99939.12
99947.443
99981.359
87646.354
87994.345
87980.687
88363.656
88382.748
88737.859
88837.851
89139.571
89326.185
89590.463
89833.321
90096.347
90365.456
90644.158
90931.313
91226.65
91529.587
91839.455
92155.442
92476.608
92801.881
93130.066
93459.858
93789.856
94118.59
94444.542
94766.175
95081.965
95390.435
95690.191
95979.95
96258.572
96525.087
96778.714
97018.867
97245.166
97457.43
97655.668
97840.059
98010.939
98168.772
98314.126
98447.655
98570.068
98682.112
98784.553
98878.156
98963.677
99041.847
99113.363
99178.887
99239.035
99294.38
99345.445
99392.708
99436.598
99477.501
99515.758
99551.671
99585.502
99617.48
99647.799
99676.621
99704.081
99730.29
99755.336
99779.285
99802.189
99824.072
99844.933
99864.792
99883.71
99901.569
99917.94
99933.138
99948.877
99962.972
99967.152
99974.052
100014.45
87688.199
88083.026
88065.545
88496.693
88520.944
88915.468
89034.879
89365.843
89583.867
89875.084
90151.006
90445.024
90746.81
91058.352
91378.62
91707.015
92042.669
92384.577
92731.568
93082.316
93435.356
93789.098
94141.853
94491.862
94837.327
95176.45
95507.477
95828.739
96138.694
96435.967
96719.386
96988.005
97241.122
97478.284
97699.283
97904.146
98093.108
98266.593
98425.181
98569.578
98700.587
98819.076
98925.954
99022.149
99108.584
99186.164
99255.763
99318.211
99374.291
99424.732
99470.204
99511.325
99548.65
99582.682
99613.869
99642.607
99669.245
99694.086
99717.391
99739.386
99760.259
99780.168
99799.236
99817.566
99835.234
99852.294
99868.786
99884.727
99900.109
99914.908
99929.142
99942.828
99955.715
99967.391
99978.562
99990.818
100000.25
99998.634
100005.3
100051.62
87784.577
88234.944
88214.128
88700.021
88732.851
89171.231
89317.98
89680.965
89937.822
90260.978
90575.323
90905.969
91245.626
91595.066
91953.122
92318.771
92690.718
93067.492
93447.437
93828.737
94209.441
94587.495
94960.78
95327.159
95684.533
96030.886
96364.354
96683.267
96986.201
97272.012
97539.856
97789.198
98019.812
98231.753
98425.341
98601.119
98759.823
98902.332
99029.641
99142.816
99242.966
99331.213
99408.668
99476.414
99535.488
99586.875
99631.494
99670.198
99703.771
99732.925
99758.306
99780.49
99799.991
99817.263
99832.704
99846.659
99859.424
99871.253
99882.357
99892.915
99903.071
99912.939
99922.604
99932.131
99941.559
99950.913
99960.2
99969.406
99978.491
99987.42
99996.206
100004.79
100012.81
100019.98
100027.41
100036.19
100040.65
100033.85
100041.56
100092.59
87941.937
88458.21
88435.028
88983.307
89030.789
89517.189
89700.504
90099.052
90402.621
90764.109
91123.022
91496.823
91880.316
92273.198
92673.892
93080.786
93491.99
93905.421
94318.809
94729.739
95135.696
95534.118
95922.465
96298.29
96659.312
97003.493
97329.093
97634.724
97919.375
98182.425
98423.634
98643.121
98841.322
99018.951
99176.946
99316.418
99438.604
99544.82
99636.421
99714.765
99781.189
99836.986
99883.383
99921.538
99952.527
99977.341
99996.883
100011.97
100023.35
100031.66
100037.5
100041.37
100043.72
100044.93
100045.34
100045.23
100044.82
100044.32
100043.88
100043.64
100043.67
100044.07
100044.86
100046.07
100047.72
100049.79
100052.27
100055.09
100058.21
100061.58
100065.21
100068.93
100072.29
100075.29
100079.34
100084.63
100083.98
100073.07
100083.07
100136.96
88167.206
88762.464
88739.405
89358.384
89427.933
89966.327
90197.462
90636.727
90996.038
91404.306
91815.245
92239.695
92673.535
93115.407
93563.063
94014.12
94465.921
94915.611
95360.176
95796.518
96221.533
96632.214
97025.751
97399.628
97751.711
98080.31
98384.219
98662.728
98915.608
99143.079
99345.753
99524.581
99680.774
99815.748
99931.053
100028.32
100109.2
100175.36
100228.39
100269.82
100301.13
100323.64
100338.63
100347.22
100350.46
100349.27
100344.49
100336.86
100327.01
100315.53
100302.89
100289.53
100275.81
100262.02
100248.43
100235.24
100222.62
100210.7
100199.59
100189.35
100180.04
100171.68
100164.27
100157.8
100152.26
100147.59
100143.75
100140.66
100138.25
100136.49
100135.32
100134.49
100133.55
100132.82
100133.9
100135.65
100129.91
100116.37
100129.88
100184.25
88467.415
89157.159
89136.669
89836.04
89939.117
90535.34
90828.867
91317.243
91742.782
92208.081
92679.369
93162.094
93652.343
94147.636
94644.798
95140.445
95630.935
96112.476
96581.233
97033.465
97465.667
97874.706
98257.942
98613.312
98939.383
99235.362
99501.07
99736.894
99943.708
100122.79
100275.72
100404.33
100510.55
100596.43
100664
100715.25
100752.13
100776.44
100789.9
100794.09
100790.44
100780.27
100764.74
100744.91
100721.71
100695.94
100668.34
100639.5
100609.97
100580.21
100550.59
100521.44
100493.04
100465.58
100439.26
100414.2
100390.51
100368.25
100347.47
100328.19
100310.42
100294.14
100279.31
100265.89
100253.83
100243.05
100233.49
100225.04
100217.63
100211.21
100205.7
100200.72
100195.91
100192.01
100190.47
100188.67
100178.06
100163.42
100181.54
100233.68
88850.759
89653.368
89640.153
90434.955
90587.998
91251.84
91624.857
92173.173
92675.729
93208.683
93748.305
94295.835
94846.771
95397.238
95942.748
96478.609
97000.01
97502.228
97980.83
98431.867
98852.044
99238.835
99590.546
99906.321
100186.1
100430.53
100640.87
100818.87
100966.61
101086.44
101180.84
101252.34
101303.45
101336.6
101354.08
101358.08
101350.57
101333.39
101308.19
101276.45
101239.49
101198.48
101154.44
101108.26
101060.72
101012.48
100964.1
100916.08
100868.81
100822.63
100777.8
100734.56
100693.06
100653.45
100615.82
100580.23
100546.71
100515.29
100485.94
100458.66
100433.39
100410.09
100388.68
100369.1
100351.26
100335.07
100320.43
100307.24
100295.4
100284.88
100275.49
100266.83
100258.71
100252.19
100248.34
100243.06
100228.16
100213.65
100236.87
100285.14
89334.535
90276.156
90281.041
91190.691
91411.896
92153.879
92624.199
93244.144
93833.825
94444.493
95059.186
95675.524
96287.48
96889.253
97474.677
98037.686
98572.579
99074.312
99538.729
99962.721
100344.3
100682.6
100977.78
101230.91
101443.8
101618.86
101758.86
101866.85
101946
101999.47
102030.34
102041.56
102035.89
102015.87
101983.83
101941.87
101891.87
101835.48
101774.19
101709.26
101641.81
101572.8
101503.06
101433.29
101364.07
101295.9
101229.21
101164.31
101101.48
101040.93
100982.84
100927.31
100874.43
100824.25
100776.79
100732.06
100690.02
100650.64
100613.87
100579.64
100547.87
100518.47
100491.35
100466.42
100443.57
100422.68
100403.65
100386.34
100370.7
100356.63
100343.9
100332.08
100321.25
100312.65
100306.7
100298.22
100280.08
100266.48
100294.49
100338.91
89949.014
91067.638
91102.328
92145.731
92454.574
93283.592
93870.653
94576.267
95262.934
95959.777
96652.611
97335.327
97999.581
98637.491
99241.578
99805.295
100323.34
100791.86
101208.57
101572.65
101884.68
102146.37
102360.36
102529.95
102658.89
102751.16
102810.79
102841.76
102847.85
102832.63
102799.39
102751.11
102690.49
102619.92
102541.51
102457.1
102368.31
102276.52
102182.93
102088.55
101994.23
101900.72
101808.59
101718.37
101630.44
101545.14
101462.72
101383.38
101307.26
101234.47
101165.07
101099.09
101036.53
100977.37
100921.57
100869.06
100819.78
100773.64
100730.56
100690.42
100653.12
100618.55
100586.58
100557.11
100530
100505.13
100482.37
100461.61
100442.77
100425.73
100410.17
100395.77
100382.85
100372.65
100364.76
100353.4
100333.52
100322
100353.68
100393.85
90728.18
92059.757
92139.054
93337.165
93766.905
94695.228
95420.845
96228.411
97018.746
97802.661
98565.288
99296.919
99987.378
100628.04
101212.04
101734.6
102193.1
102586.96
102917.44
103187.24
103400.22
103560.98
103674.55
103746.16
103780.97
103783.98
103759.84
103712.85
103646.91
103565.51
103471.71
103368.24
103257.42
103141.3
103021.59
102899.79
102777.14
102654.69
102533.33
102413.78
102296.62
102182.36
102071.37
101963.95
101860.34
101760.71
101665.16
101573.78
101486.6
101403.62
101324.82
101250.14
101179.53
101112.9
101050.15
100991.18
100935.87
100884.11
100835.76
100790.7
100748.8
100709.91
100673.91
100640.66
100610.02
100581.85
100556.03
100532.44
100510.99
100491.52
100473.68
100457.27
100442.86
100431.49
100421.86
100408.07
100387.63
100379.49
100413.91
100448.69
91703.83
93301.26
93461.713
94831.577
95427.911
96470.994
97351.533
98269.92
99156.02
100007.29
100807.46
101545.39
102211.95
102801.18
103310.15
103738.82
104089.54
104366.59
104575.59
104722.97
104815.57
104860.25
104863.66
104832.05
104771.13
104686.08
104581.48
104461.35
104329.2
104188.03
104040.41
103888.52
103734.21
103579.02
103424.23
103270.89
103119.88
102971.91
102827.54
102687.21
102551.28
102420.01
102293.59
102172.15
102055.75
101944.45
101838.22
101737.05
101640.87
101549.6
101463.14
101381.39
101304.22
101231.49
101163.08
101098.83
101038.6
100982.24
100929.59
100880.51
100834.85
100792.44
100753.15
100716.83
100683.32
100652.49
100624.2
100598.36
100574.85
100553.45
100533.85
100516.01
100500.65
100488.43
100477.29
100461.72
100441.84
100437.71
100473.49
100501.5
92957.931
94890.899
95177.159
96739.491
97549.358
98713.773
99741.857
100752.8
101694.58
102558.36
103330.54
104003.79
104574.96
105044.99
105418.11
105700.98
105901.83
106029.77
106094.08
106103.86
106067.65
105993.27
105887.72
105757.16
105606.97
105441.73
105265.36
105081.16
104891.89
104699.86
104506.97
104314.78
104124.57
103937.38
103754.02
103575.16
103401.31
103232.84
103070.06
102913.16
102762.27
102617.47
102478.79
102346.2
102219.66
102099.08
101984.37
101875.42
101772.07
101674.2
101581.64
101494.24
101411.83
101334.23
101261.28
101192.8
101128.61
101068.56
101012.46
100960.15
100911.47
100866.24
100824.32
100785.55
100749.77
100716.84
100686.63
100659.05
100633.95
100611.07
100590.19
100571.43
100555.53
100542.67
100530.3
100513.77
100495.47
100494.97
100529.87
100551.03
94620.009
96967.073
97433.583
99185.309
100242.11
101509.37
102628.77
103662.7
104573.66
105355.9
106005.87
106526.42
106924.79
107211.38
107398.39
107498.76
107525.24
107489.91
107403.78
107276.64
107117
106932.17
106728.34
106510.68
106283.51
106050.36
105814.14
105577.2
105341.47
105108.46
104879.4
104655.23
104436.71
104224.4
104018.72
103819.98
103628.36
103444.01
103266.97
103097.24
102934.78
102779.52
102631.35
102490.13
102355.71
102227.94
102106.64
101991.62
101882.68
101779.65
101682.31
101590.47
101503.93
101422.49
101345.95
101274.12
101206.81
101143.83
101085
101030.13
100979.06
100931.61
100887.62
100846.93
100809.38
100774.83
100743.17
100714.27
100687.98
100664.04
100642.3
100623.03
100606.85
100593.47
100580.15
100563.42
100547.38
100549.78
100582.17
100597.71
96875.492
99686.729
100393.74
102281.18
103543.85
104850.98
105942.68
106871.35
107624.79
108209.57
108637.5
108924.96
109090.26
109152.04
109128.04
109034.39
108885.32
108693.05
108467.88
108218.37
107951.55
107673.14
107387.76
107099.12
106810.15
106523.18
106240.05
105962.17
105690.63
105426.25
105169.64
104921.24
104681.33
104450.09
104227.63
104013.95
103809.01
103612.73
103424.98
103245.61
103074.45
102911.31
102755.97
102608.21
102467.83
102334.58
102208.24
102088.57
101975.34
101868.33
101767.29
101672.01
101582.26
101497.82
101418.48
101344.03
101274.26
101208.98
101148
101091.13
101038.18
100988.99
100943.39
100901.22
100862.31
100826.54
100793.79
100763.93
100736.77
100712.09
100689.85
100670.36
100654.05
100640.24
100626.29
100610
100596.6
100601.35
100630.16
100639.37
99968.987
103157.12
104164.06
106110.08
107405.59
108557.82
109457.77
110130.98
110596.2
110880.77
111013.03
111020.64
110928.68
110759
110530.03
110256.96
109952.11
109625.36
109284.52
108935.71
108583.73
108232.26
107884.16
107541.59
107206.17
106879.1
106561.27
106253.27
105955.52
105668.26
105391.62
105125.62
104870.2
104625.25
104390.62
104166.11
103951.49
103746.53
103550.97
103364.56
103187.01
103018.05
102857.41
102704.8
102559.96
102422.6
102292.46
102169.27
102052.77
101942.71
101838.83
101740.89
101648.65
101561.87
101480.34
101403.83
101332.13
101265.05
101202.37
101143.92
101089.5
101038.94
100992.08
100948.75
100908.81
100872.11
100838.55
100807.97
100780.19
100755.05
100732.57
100713.03
100696.64
100682.49
100668.3
100653.06
100642.28
100648.16
100672.44
100677.35
104154.43
107550.45
108752.25
110426.34
111534.27
112346.33
112863.16
113140.16
113222.34
113152.85
112968
112697.78
112366.15
111991.88
111589.46
111169.96
110741.74
110311.1
109882.71
109460.01
109045.54
108641.08
108247.9
107866.86
107498.5
107143.12
106800.87
106471.73
106155.61
105852.32
105561.63
105283.27
105016.94
104762.32
104519.07
104286.84
104065.31
103854.11
103652.9
103461.35
103279.11
103105.86
102941.26
102785.01
102636.79
102496.3
102363.23
102237.31
102118.26
102005.79
101899.66
101799.59
101705.34
101616.68
101533.36
101455.17
101381.9
101313.32
101249.25
101189.49
101133.86
101082.18
101034.28
100990.01
100949.22
100911.78
100877.56
100846.42
100818.19
100792.75
100770.15
100750.62
100734.13
100719.74
100705.75
100691.99
100683.49
100689.21
100708.29
100710.38
109356.29
112701.36
113805.04
114913.45
115508.21
115777.45
115786.05
115607.4
115295.27
114891.72
114427.9
113926.72
113404.76
112873.94
112342.71
111817.06
111301.12
110797.74
110308.79
109835.46
109378.46
108938.12
108514.53
108107.57
107717.02
107342.56
106983.81
106640.33
106311.68
105997.39
105697
105410.04
105136.04
104874.54
104625.11
104387.29
104160.66
103944.81
103739.34
103543.85
103357.98
103181.34
103013.6
102854.4
102703.41
102560.32
102424.8
102296.56
102175.31
102060.77
101952.66
101850.72
101754.69
101664.34
101579.43
101499.72
101425.01
101355.08
101289.74
101228.79
101172.05
101119.34
101070.49
101025.36
100983.8
100945.68
100910.87
100879.23
100850.61
100824.93
100802.24
100782.64
100765.99
100751.49
100738.06
100726.05
100719.3
100723.4
100736.34
100737.14
115519.55
118012.7
118611.16
118880.14
118775.91
118439.49
117949.88
117367.35
116732.09
116071.31
115403.02
114739.05
114087.05
113451.86
112836.43
112242.43
111670.7
111121.46
110594.61
110089.75
109606.35
109143.77
108701.32
108278.29
107873.94
107487.55
107118.43
106765.88
106429.25
106107.89
105801.19
105508.56
105229.45
104963.31
104709.63
104467.92
104237.7
104018.51
103809.93
103611.54
103422.93
103243.73
103073.55
102912.04
102758.86
102613.67
102476.16
102346.03
102222.96
102106.68
101996.91
101893.38
101795.84
101704.04
101617.75
101536.73
101460.77
101389.67
101323.21
101261.22
101203.5
101149.88
101100.21
101054.32
101012.08
100973.35
100938.01
100905.91
100876.95
100851.06
100828.24
100808.49
100791.63
100777.11
100764.39
100753.97
100748.23
100750.1
100757.69
100758.49
122098.07
122532.18
122308.46
121754.62
121019.22
120192.91
119331.28
118465.94
117615.18
116789.09
115993.01
115229.39
114499
113801.62
113136.42
112502.28
111897.91
111321.96
110773.06
110249.9
109751.18
109275.71
108822.33
108389.96
107977.59
107584.27
107209.1
106851.24
106509.91
106184.37
105873.93
105577.93
105295.74
105026.79
104770.52
104526.41
104293.95
104072.67
103862.12
103661.86
103471.49
103290.59
103118.8
102955.74
102801.08
102654.46
102515.58
102384.11
102259.76
102142.24
102031.27
101926.59
101827.93
101735.05
101647.72
101565.7
101488.79
101416.76
101349.43
101286.6
101228.08
101173.72
101123.34
101076.8
101033.95
100994.66
100958.81
100926.27
100896.94
100870.76
100847.7
100827.68
100810.53
100795.97
100783.82
100774.48
100769.08
100768.72
100772.27
100773.65
125959.51
125331.6
124411.84
123356.93
122270.38
121196.24
120157.09
119162.16
118214.85
117315.32
116462.25
115653.55
114886.82
114159.61
113469.5
112814.2
112191.58
111599.63
111036.53
110500.58
109990.22
109504.04
109040.71
108599.02
108177.87
107776.21
107393.1
107027.64
106679.01
106346.43
106029.2
105726.63
105438.08
105162.96
104900.71
104650.8
104412.7
104185.96
103970.09
103764.69
103569.31
103383.57
103207.08
103039.48
102880.42
102729.56
102586.57
102451.14
102322.98
102201.78
102087.28
101979.2
101877.29
101781.29
101690.98
101606.12
101526.49
101451.88
101382.1
101316.95
101256.25
101199.82
101147.52
101099.17
101054.65
101013.82
100976.55
100942.73
100912.25
100885.07
100861.11
100840.29
100822.45
100807.42
100795.2
100786.04
100780.46
100778.74
100780.11
100781.98
104039.13
104003.21
104029.54
104056.31
104071.47
104063.1
104030.64
103988.9
103941.17
103882.6
103811.08
103729.44
103640.96
103549.75
103456.17
103360.21
103262.1
103162.17
103060.7
102957.94
102854.14
102749.51
102644.27
102538.63
102432.77
102326.88
102221.14
102115.72
102010.79
101906.52
101803.06
101700.57
101599.21
101499.12
101400.46
101303.36
101207.98
101114.47
101022.96
100933.59
100846.53
100761.89
100679.83
100600.49
100524.01
100450.51
100380.14
100313.02
100249.28
100189.03
100132.38
100079.42
100030.22
99984.859
99943.383
99905.825
99872.198
99842.49
99816.668
99794.665
99776.393
99761.732
99750.547
99742.674
99737.954
99736.121
99737.11
99740.271
99746.33
99752.821
99764.262
99770.513
99790.805
99789.501
99828.114
99801.907
99876.527
99807.845
99930.524
99813.706
103054.92
103048.69
103071.6
103092.31
103095.01
103093.82
103086.56
103072.83
103049.6
103020.8
102985.5
102945.23
102899.4
102848.9
102793.77
102734.51
102671.3
102604.45
102534.21
102460.87
102384.72
102306.03
102225.08
102142.16
102057.54
101971.49
101884.29
101796.19
101707.45
101618.3
101529
101439.78
101350.85
101262.43
101174.75
101088
101002.39
100918.13
100835.39
100754.38
100675.29
100598.28
100523.54
100451.25
100381.57
100314.65
100250.67
100189.77
100132.09
100077.76
100026.89
99979.586
99935.931
99895.995
99859.832
99827.472
99798.924
99774.17
99753.169
99735.848
99722.105
99711.814
99704.83
99700.983
99700.098
99701.916
99706.332
99712.763
99721.786
99731.238
99745.044
99754.2
99775.934
99777.61
99816.486
99794.006
99868.315
99801.905
99927.235
99806.621
102417.39
102412.14
102411.56
102413.54
102408.91
102403.86
102394.3
102384.52
102369.8
102352.7
102330.46
102305.31
102275.49
102242.26
102204.95
102164.07
102119.57
102071.66
102020.48
101966.21
101909.04
101849.15
101786.75
101722.05
101655.26
101586.59
101516.27
101444.52
101371.55
101297.61
101222.92
101147.7
101072.19
100996.62
100921.21
100846.2
100771.81
100698.26
100625.78
100554.59
100484.9
100416.91
100350.84
100286.89
100225.24
100166.09
100109.61
100055.98
100005.35
99957.866
99913.651
99872.818
99835.461
99801.653
99771.452
99744.889
99721.97
99702.673
99686.951
99674.723
99665.881
99660.293
99657.805
99658.242
99661.419
99667.079
99675.092
99684.925
99697.046
99709.519
99725.836
99737.846
99761.251
99765.645
99805.196
99786.014
99860.336
99795.99
99923.847
99799.923
101964.78
101952.51
101936.89
101921.28
101906.37
101893.34
101873.48
101855.33
101833.21
101811.87
101786.79
101761.57
101733.3
101703.92
101672.08
101638.44
101602.63
101564.76
101524.75
101482.63
101438.41
101392.12
101343.81
101293.56
101241.44
101187.56
101132.03
101075.01
101016.62
100957.04
100896.45
100835.02
100772.96
100710.46
100647.75
100585.03
100522.53
100460.48
100399.09
100338.6
100279.22
100221.19
100164.73
100110.04
100057.35
100006.86
99958.758
99913.236
99870.463
99830.593
99793.762
99760.09
99729.678
99702.606
99678.932
99658.69
99641.883
99628.486
99618.444
99611.674
99608.06
99607.463
99609.728
99614.673
99622.105
99631.771
99643.522
99656.866
99672.189
99687.737
99706.669
99721.503
99746.736
99753.672
99794.196
99777.951
99852.627
99790.127
99920.43
99793.662
101423.99
101407.65
101389.32
101370.05
101349.99
101333.84
101313.13
101296.22
101274.88
101256.48
101234.43
101214.01
101190.89
101168.04
101143.34
101117.83
101090.85
101062.59
101032.85
101001.6
100968.8
100934.41
100898.42
100860.83
100821.66
100780.94
100738.74
100695.12
100650.18
100604.03
100556.78
100508.57
100459.57
100409.93
100359.85
100309.5
100259.09
100208.83
100158.93
100109.61
100061.1
100013.61
99967.378
99922.621
99879.558
99838.405
99799.365
99762.629
99728.377
99696.768
99667.945
99642.033
99619.138
99599.344
99582.708
99569.262
99559.009
99551.918
99547.929
99546.952
99548.867
99553.532
99560.786
99570.444
99582.309
99596.13
99611.744
99628.7
99647.312
99665.989
99687.607
99705.255
99732.414
99741.818
99783.458
99769.948
99845.155
99784.381
99917.1
99787.783
100789.57
100779.61
100770.1
100760.27
100747.57
100740.05
100726.22
100717.69
100703.32
100693.09
100678.16
100665.97
100650.64
100636.38
100620.19
100603.63
100585.79
100567.04
100547.11
100525.99
100503.65
100480.04
100455.14
100428.93
100401.4
100372.56
100342.43
100311.05
100278.45
100244.72
100209.93
100174.19
100137.6
100100.31
100062.46
100024.22
99985.747
99947.237
99908.883
99870.887
99833.458
99796.813
99761.17
99726.747
99693.762
99662.426
99632.944
99605.506
99580.289
99557.456
99537.149
99519.495
99504.599
99492.543
99483.384
99477.149
99473.835
99473.407
99475.796
99480.907
99488.616
99498.778
99511.227
99525.776
99542.224
99560.325
99579.907
99600.556
99622.521
99644.369
99668.718
99689.16
99718.315
99730.177
99772.982
99762.083
99837.918
99778.812
99913.831
99782.235
100164.86
100162.77
100160.79
100160.48
100155.02
100156.16
100149.4
100149.49
100142.48
100141.17
100133.91
100130.4
100123.09
100117.42
100109.5
100101.46
100092.16
100082.19
100071.27
100059.42
100046.59
100032.75
100017.88
100001.93
99984.91
99966.794
99947.587
99927.306
99905.977
99883.643
99860.362
99836.207
99811.266
99785.643
99759.456
99732.838
99705.935
99678.905
99651.921
99625.163
99598.824
99573.102
99548.201
99524.326
99501.684
99480.475
99460.893
99443.121
99427.328
99413.669
99402.283
99393.291
99386.792
99382.863
99381.553
99382.883
99386.841
99393.381
99402.431
99413.885
99427.617
99443.477