/*--------------------------------*- C++ -*----------------------------------*\
| =========                 |                                                 |
| \\      /  F ield         | OpenFOAM: The Open Source CFD Toolbox           |
|  \\    /   O peration     | Version:  2512                                  |
|   \\  /    A nd           | Website:  www.openfoam.com                      |
|    \\/     M anipulation  |                                                 |
\*---------------------------------------------------------------------------*/
FoamFile
{
    version     2.0;
    format      ascii;
    arch        "LSB;label=32;scalar=64";
    class       surfaceScalarField;
    location    "0.145";
    object      phi;
}
// * * * * * * * * * * * * * * * * * * * * * * * * * * * * * * * * * * * * * //

dimensions      [1 0 -1 0 0 0 0];

oriented        oriented;

internalField   nonuniform List<scalar> 
31760
(
-0.00063905512
-0.051032415
0.051671997
-0.0016040481
-0.06445773
0.065423262
-0.0025946752
-0.062915715
0.063905309
-0.0036122872
-0.068717185
0.069735372
-0.0046841348
-0.070279569
0.071351935
-0.0057850996
-0.074626476
0.075727979
-0.0069558697
-0.07750254
0.078673829
-0.0081659651
-0.081548525
0.082759144
-0.009436286
-0.085152942
0.086423793
-0.010765638
-0.089288972
0.090618865
-0.012150389
-0.093419914
0.094805218
-0.013602761
-0.097841099
0.099294046
-0.015116921
-0.10242066
0.10393542
-0.016701455
-0.10723008
0.10881523
-0.018355705
-0.11225386
0.11390876
-0.02008452
-0.11751045
0.11923995
-0.021890491
-0.12300728
0.12481398
-0.023776825
-0.12875602
0.13064311
-0.025746738
-0.13476761
0.13673833
-0.027803621
-0.14105339
0.14311111
-0.029950897
-0.14762574
0.14977391
-0.032192322
-0.15449666
0.15673903
-0.034531489
-0.16167975
0.16401991
-0.036972301
-0.16918873
0.17163059
-0.039517733
-0.17703813
0.17958468
-0.042172369
-0.18524208
0.18789789
-0.044940106
-0.19381682
0.19658581
-0.047824375
-0.20277896
0.20566455
-0.050828679
-0.21214542
0.21515114
-0.053957072
-0.22193429
0.22506418
-0.057212874
-0.23216448
0.23542187
-0.060599434
-0.2428558
0.24624405
-0.064119582
-0.25402975
0.2575517
-0.067776389
-0.26570744
0.26936616
-0.071571872
-0.27791294
0.28171046
-0.075507718
-0.29067054
0.29460855
-0.079585286
-0.30400596
0.30808584
-0.083805076
-0.31794693
0.32216918
-0.088166926
-0.33252145
0.33688593
-0.092669535
-0.34776102
0.35226643
-0.097310912
-0.36369744
0.3683418
-0.10208763
-0.38036454
0.38514445
-0.10699507
-0.39779847
0.40270932
-0.11202741
-0.41603718
0.42107315
-0.11717687
-0.43512114
0.4402745
-0.12243428
-0.45509212
0.46035369
-0.12778803
-0.47599518
0.48135337
-0.13322513
-0.49787682
0.50331869
-0.13873002
-0.5207873
0.5262973
-0.14428432
-0.54477855
0.55033833
-0.14986693
-0.56990511
0.57549359
-0.15545427
-0.59622515
0.60181879
-0.16101889
-0.6237991
0.62937048
-0.16652976
-0.65269063
0.65820877
-0.17195233
-0.68296632
0.6883967
-0.17724662
-0.71469678
0.71999945
-0.18236849
-0.74795509
0.75308595
-0.18726847
-0.78281793
0.78772756
-0.19189012
-0.81936592
0.82399792
-0.19617122
-0.85768284
0.86197504
-0.20004165
-0.89785607
0.90173839
-0.20342352
-0.93997662
0.94337121
-0.20622944
-0.98413991
0.98695944
-0.20836201
-1.0304452
1.0325923
-0.20971238
-1.078994
1.0803598
-0.21015958
-1.1298919
1.1303555
-0.20956735
-1.1832462
1.1826714
-0.20779024
-1.2391657
1.237407
-0.20466147
-1.2977682
1.2946587
-0.19999396
-1.3591734
1.3545261
-0.19358511
-1.4235034
1.4171157
-0.18521463
-1.4908788
1.4825306
-0.17462923
-1.561425
1.5508628
-0.16156232
-1.6352681
1.6222252
-0.14570065
-1.712561
1.6967243
-0.12679123
-1.7934446
1.7745608
-0.10414736
-1.8780728
1.8554546
-0.07829186
-1.9669638
1.9411383
-0.046951903
-2.0586739
2.02735
-2.1574687
2.122647
-0.00063422525
-0.05039811
-0.0015041267
-0.063587665
-0.0023988153
-0.062019945
-0.0033581118
-0.067757794
-0.0043275447
-0.069309967
-0.0053736973
-0.073580119
-0.0064356388
-0.076440349
-0.0075773693
-0.080406496
-0.008744869
-0.083985103
-0.0099870854
-0.088046372
-0.011271784
-0.09213479
-0.012624375
-0.096488042
-0.014034034
-0.1010105
-0.015510395
-0.10575317
-0.01705331
-0.11071036
-0.01866709
-0.11589605
-0.020353855
-0.12131985
-0.022117406
-0.12699175
-0.023960962
-0.1329233
-0.025888117
-0.13912542
-0.027902542
-0.14561046
-0.030007501
-0.15239079
-0.032207113
-0.15947918
-0.034505078
-0.16688974
-0.036906207
-0.17463592
-0.039413327
-0.18273381
-0.04203115
-0.19119778
-0.044763435
-0.20004538
-0.047614493
-0.20929299
-0.050587931
-0.21895939
-0.053687869
-0.22906298
-0.05691769
-0.23962432
-0.060280751
-0.25066492
-0.063780103
-0.2622062
-0.067418235
-0.2742728
-0.071197541
-0.28688909
-0.07511926
-0.30008196
-0.079184966
-0.31387879
-0.083394072
-0.32830975
-0.08774623
-0.34340608
-0.092239893
-0.35920081
-0.096871999
-0.37572927
-0.10163821
-0.39302887
-0.10653348
-0.41113829
-0.11155071
-0.43010003
-0.11668134
-0.44995734
-0.12191511
-0.47075696
-0.12723934
-0.49254782
-0.13263969
-0.51538183
-0.13809954
-0.5393132
-0.14359945
-0.56439931
-0.14911727
-0.59070098
-0.15462772
-0.61828184
-0.16010241
-0.64720862
-0.16550916
-0.67755169
-0.17081161
-0.70938586
-0.17596921
-0.74278838
-0.18093635
-0.777841
-0.18566166
-0.8146301
-0.19008824
-0.85324498
-0.19415202
-0.8937802
-0.1977816
-0.93633406
-0.20089688
-0.98101075
-0.20340962
-1.0279176
-0.20522015
-1.0771676
-0.206219
-1.1288761
-0.20628038
-1.1831668
-0.20526899
-1.2401581
-0.20303406
-1.2999831
-0.19940694
-1.3627796
-0.19420326
-1.4286851
-0.18721595
-1.497843
-0.17821845
-1.5703983
-0.16695842
-1.6465029
-0.15316954
-1.7263236
-0.13654693
-1.8100403
-0.11669839
-1.8978933
-0.093567317
-1.9900651
-0.065887329
-2.0863362
-2.1886559
-0.00057161471
-0.049826253
-0.0013837879
-0.062775204
-0.0021874142
-0.061216137
-0.0030944953
-0.066850354
-0.0039851856
-0.068418884
-0.0049638781
-0.072601042
-0.0059416786
-0.075462145
-0.0070048092
-0.079342945
-0.0080855587
-0.082903913
-0.0092401187
-0.086891352
-0.010433522
-0.090940903
-0.011691292
-0.095229767
-0.013003509
-0.099697746
-0.014378957
-0.10437716
-0.015818064
-0.10927066
-0.017324533
-0.11438895
-0.018901681
-0.11974204
-0.020552474
-0.12534026
-0.02228118
-0.13119385
-0.024090623
-0.1373152
-0.025985286
-0.14371497
-0.027968687
-0.15040651
-0.030044701
-0.15740223
-0.032218116
-0.16471534
-0.034492203
-0.17236078
-0.036872188
-0.18035271
-0.039361538
-0.18870724
-0.041965351
-0.1974403
-0.04468722
-0.20656978
-0.047532339
-0.21611284
-0.050503875
-0.22608992
-0.053606218
-0.23652036
-0.056843244
-0.24742616
-0.060217715
-0.25882988
-0.063733298
-0.27075524
-0.067392242
-0.28322804
-0.071196863
-0.29627509
-0.075147751
-0.30992549
-0.07924599
-0.32420893
-0.083491126
-0.33915819
-0.087881421
-0.35480757
-0.092414796
-0.37119274
-0.0970879
-0.38835238
-0.10189528
-0.40632729
-0.10683095
-0.42516047
-0.11188692
-0.4448972
-0.11705395
-0.46558546
-0.12232009
-0.48727688
-0.12767278
-0.51002398
-0.13309634
-0.53388411
-0.13857257
-0.55891713
-0.14408204
-0.58518511
-0.14960144
-0.61275555
-0.15510483
-0.6416978
-0.16056305
-0.67208549
-0.16594316
-0.70399714
-0.17120862
-0.73751367
-0.17631727
-0.77272239
-0.18122366
-0.809713
-0.18587534
-0.84858179
-0.19021489
-0.88942829
-0.19417727
-0.9323584
-0.19769089
-0.97748289
-0.20067484
-1.0249184
-0.20303914
-1.0747869
-0.20468254
-1.1272152
-0.20549672
-1.182334
-0.20535553
-1.2402796
-0.20411947
-1.3011984
-0.20164058
-1.3652366
-0.19774559
-1.4325571
-0.19225242
-1.503312
-0.18494952
-1.5776758
-0.17561235
-1.6558135
-0.16399161
-1.7379167
-0.14980308
-1.8242003
-0.13275496
-1.9149113
-0.1125852
-2.0102047
-0.088575761
-2.1103245
-2.216107
-0.00051652673
-0.049309477
-0.0012679283
-0.062023516
-0.0020000205
-0.060483851
-0.0028491429
-0.066000909
-0.0036746464
-0.067593055
-0.0045860723
-0.071689268
-0.0054873219
-0.074560536
-0.0064767339
-0.078353152
-0.0074776769
-0.08190257
-0.0085513489
-0.085817257
-0.0096607525
-0.089831053
-0.010831592
-0.094058455
-0.01205504
-0.098473798
-0.013338867
-0.10309281
-0.01468453
-0.10792444
-0.01609588
-0.11297701
-0.017576172
-0.11826112
-0.019128778
-0.12378699
-0.020757149
-0.12956477
-0.02246562
-0.13560598
-0.024257348
-0.14192244
-0.026137394
-0.14852562
-0.028109671
-0.15542905
-0.030178181
-0.16264587
-0.032348108
-0.17018983
-0.034623441
-0.17807629
-0.037009265
-0.18632026
-0.03950998
-0.19493836
-0.042131108
-0.20394734
-0.044876078
-0.21336646
-0.047750106
-0.22321439
-0.050757643
-0.23351122
-0.053902473
-0.24427963
-0.057188568
-0.25554196
-0.060619428
-0.26732243
-0.064197592
-0.27964779
-0.067925352
-0.29254509
-0.071804691
-0.30604376
-0.075836016
-0.32017505
-0.080019412
-0.33497206
-0.084354308
-0.35046973
-0.088838041
-0.36670585
-0.093467809
-0.38371924
-0.098239236
-0.40155223
-0.10314637
-0.42024944
-0.10818269
-0.4398567
-0.11333847
-0.4604252
-0.11860474
-0.48200578
-0.12396868
-0.50465485
-0.12941661
-0.52843058
-0.13493286
-0.55339486
-0.14049879
-0.5796127
-0.14609412
-0.60715323
-0.15169599
-0.6360884
-0.15727733
-0.66649604
-0.16280976
-0.69845596
-0.16825983
-0.73205417
-0.17359069
-0.76738136
-0.17876119
-0.80453156
-0.18372492
-0.84360629
-0.18843019
-0.88471035
-0.19281916
-0.92795583
-0.19682762
-0.9734598
-0.20038325
-1.021347
-0.20340555
-1.0717477
-0.20580656
-1.1247961
-0.20748081
-1.1806405
-0.20832235
-1.2394175
-0.20820287
-1.3012962
-0.20699028
-1.3664263
-0.20453181
-1.4349914
-0.20065135
-1.5071671
-0.19517148
-1.583129
-0.18788011
-1.6630768
-0.17855611
-1.7472114
-0.16694626
-1.8357798
-0.15278631
-1.9290392
-0.13578625
-2.0271738
-0.11546277
-2.1306241
-2.2396585
-0.00046267108
-0.048846593
-0.0011674814
-0.061318449
-0.0018228572
-0.059828164
-0.002612052
-0.065211439
-0.0033612827
-0.066843563
-0.0042156478
-0.07083459
-0.0050501622
-0.07372569
-0.0059738074
-0.077429153
-0.0069038036
-0.080972199
-0.0079044714
-0.084816191
-0.0089396425
-0.088795458
-0.010033873
-0.092963775
-0.011180432
-0.097326762
-0.012385868
-0.10188686
-0.013652346
-0.10665742
-0.014982982
-0.1116458
-0.01638148
-0.11686201
-0.017851596
-0.12231623
-0.019397009
-0.12801868
-0.021021747
-0.13398051
-0.022730534
-0.14021288
-0.02452674
-0.14672859
-0.02641591
-0.153539
-0.028402678
-0.16065817
-0.030491618
-0.1680999
-0.032688078
-0.17587877
-0.034997346
-0.18400986
-0.037424449
-0.19251004
-0.039974417
-0.20139608
-0.042652565
-0.21068694
-0.045463888
-0.2204016
-0.048412986
-0.23056055
-0.051504347
-0.24118658
-0.054742454
-0.25230205
-0.058130595
-0.26393236
-0.061671971
-0.27610435
-0.065369191
-0.28884566
-0.069224251
-0.30218633
-0.073237977
-0.31615877
-0.077410814
-0.33079648
-0.081741749
-0.34613586
-0.086229622
-0.36221483
-0.090871135
-0.37907434
-0.095662577
-0.39675715
-0.10059944
-0.41530867
-0.10567467
-0.43477726
-0.11088098
-0.45521435
-0.11620916
-0.47667272
-0.12164841
-0.49921036
-0.12718707
-0.52288626
-0.13281059
-0.54776525
-0.13850343
-0.57391329
-0.14424745
-0.60140211
-0.15002225
-0.63030595
-0.15580539
-0.66070463
-0.16157101
-0.69268142
-0.16728983
-0.72632573
-0.17293041
-0.76173039
-0.17845606
-0.79899472
-0.18382671
-0.83822358
-0.18899653
-0.87952754
-0.19391496
-0.92302341
-0.19852499
-0.96883471
-0.20276343
-1.0170924
-0.20655936
-1.0679344
-0.20983211
-1.1215047
-0.21249637
-1.1779562
-0.21444627
-1.2374463
-0.2155814
-1.3001384
-0.21576877
-1.3662149
-0.21488087
-1.435854
-0.21276416
-1.5092571
-0.20925157
-1.5866134
-0.20415939
-1.6681393
-0.19728429
-1.7540555
-0.18840072
-1.844631
-0.17727696
-1.9401287
-0.16362279
-2.0407958
-0.14709205
-2.1471284
-2.2591095
-0.00041295993
-0.048433425
-0.0010766857
-0.060654478
-0.001669874
-0.059234737
-0.0024037275
-0.06447731
-0.0030758904
-0.066171095
-0.0038791497
-0.070031023
-0.0046461314
-0.072958384
-0.0055096049
-0.076565335
-0.006375521
-0.080105918
-0.0073150259
-0.0838763
-0.008290395
-0.08781968
-0.0093224781
-0.091931259
-0.010406884
-0.096241895
-0.011548585
-0.10074467
-0.012750263
-0.10545522
-0.014015806
-0.11037971
-0.015348707
-0.11552853
-0.016752851
-0.12091146
-0.018232751
-0.12653811
-0.019792422
-0.13242014
-0.021436987
-0.13856756
-0.023171298
-0.14499348
-0.025000543
-0.15170891
-0.026929885
-0.15872792
-0.028965004
-0.16606381
-0.031111791
-0.17373095
-0.033375073
-0.18174547
-0.035761255
-0.19012268
-0.03827575
-0.19888032
-0.040924056
-0.20803728
-0.043711887
-0.21761231
-0.046643947
-0.22762693
-0.049725753
-0.23810311
-0.052960722
-0.2490653
-0.05635347
-0.2605377
-0.059907429
-0.27254833
-0.063624883
-0.285126
-0.067507884
-0.29830096
-0.071558029
-0.31210608
-0.075775415
-0.32657636
-0.080159944
-0.34174839
-0.084709608
-0.357662
-0.089422648
-0.37435789
-0.094295776
-0.39188036
-0.09932387
-0.41027663
-0.10450178
-0.4295951
-0.10982369
-0.44988787
-0.11528067
-0.47121082
-0.12086469
-0.49362102
-0.12656429
-0.51718093
-0.13236878
-0.54195457
-0.13826411
-0.56801127
-0.1442352
-0.5954238
-0.15026492
-0.62426843
-0.15633388
-0.65462723
-0.16242031
-0.68658588
-0.16850047
-0.72023572
-0.17454628
-0.75567395
-0.18052726
-0.79300226
-0.18640837
-0.83233008
-0.19215142
-0.87377113
-0.19771247
-0.91744796
-0.20304279
-0.96348886
-0.20808738
-1.012031
-0.21278468
-1.063219
-0.21706548
-1.1172045
-0.22085241
-1.1741485
-0.22406125
-1.2342152
-0.22659007
-1.2975859
-0.22833835
-1.3644415
-0.22918227
-1.4349834
-0.22899093
-1.5094202
-0.22761696
-1.5879574
-0.22489531
-1.6708294
-0.22064608
-1.7582717
-0.21467434
-1.850568
-0.20676312
-1.9480032
-0.19665861
-2.0508662
-0.18408173
-2.1596762
-2.2742517
-0.00037038863
-0.048062838
-0.0010033067
-0.060021327
-0.0015418586
-0.058695948
-0.002229787
-0.063789124
-0.0028447718
-0.065555842
-0.0035971799
-0.069278324
-0.0043112339
-0.072244023
-0.0051136331
-0.07576261
-0.0059394088
-0.079279796
-0.0068320574
-0.082983284
-0.0077604474
-0.086890899
-0.0087417559
-0.090949535
-0.0097749964
-0.095208213
-0.010864493
-0.099654709
-0.012014233
-0.10430498
-0.013227733
-0.10916568
-0.01450986
-0.11424583
-0.015864721
-0.119556
-0.017297136
-0.12510506
-0.018812527
-0.13090406
-0.020415531
-0.13696383
-0.022112404
-0.14329583
-0.023908417
-0.14991206
-0.025809339
-0.15682611
-0.027821615
-0.16405058
-0.029950988
-0.17160056
-0.032204467
-0.1794909
-0.034587741
-0.18773824
-0.037106682
-0.19636013
-0.039768041
-0.20537458
-0.042576967
-0.21480195
-0.045539192
-0.22466317
-0.048659523
-0.23498112
-0.051943199
-0.24577984
-0.055393377
-0.25708561
-0.059013809
-0.26892585
-0.062807667
-0.28132994
-0.066776665
-0.29432959
-0.07092193
-0.30795827
-0.075244086
-0.32225146
-0.079743039
-0.33724648
-0.084417463
-0.35298439
-0.089265708
-0.36950622
-0.09428451
-0.38685786
-0.09947084
-0.40508632
-0.10482003
-0.42424161
-0.11032652
-0.44437675
-0.11598468
-0.46554766
-0.12178645
-0.48781386
-0.12772431
-0.51123724
-0.13378814
-0.53588443
-0.13996754
-0.56182507
-0.14625074
-0.58913323
-0.15262357
-0.61788763
-0.15907086
-0.64817132
-0.16557477
-0.68007264
-0.17211598
-0.71368441
-0.17867207
-0.74910695
-0.18521769
-0.78644485
-0.19172482
-0.8258102
-0.19816084
-0.86732135
-0.20448994
-0.911104
-0.21067098
-0.95729177
-0.2166582
-1.0060265
-0.22239991
-1.0574586
-0.22783718
-1.111747
-0.23290446
-1.1690595
-0.2375289
-1.2295676
-0.24162521
-1.2934649
-0.24510141
-1.3609389
-0.24785881
-1.4321979
-0.24977958
-1.5074694
-0.25073362
-1.5869715
-0.25058399
-1.6709453
-0.24916726
-1.7596531
-0.24631327
-1.8533849
-0.24183951
-1.9524378
-0.235515
-2.0571547
-0.22710493
-2.1680543
-2.2848556
-0.0003268
-0.047735849
-0.00093374829
-0.059414156
-0.0014235131
-0.058205955
-0.0020663193
-0.06314607
-0.0026395181
-0.064982383
-0.0033663367
-0.068551227
-0.0040480263
-0.071562038
-0.0048351299
-0.074975192
-0.0056176652
-0.078496926
-0.0064625874
-0.082138007
-0.0073473197
-0.086005789
-0.0082844811
-0.090011973
-0.009276013
-0.094216254
-0.010325496
-0.098604773
-0.0114373
-0.1031927
-0.012615998
-0.10798647
-0.013865543
-0.11299574
-0.015191922
-0.11822903
-0.016599984
-0.12369637
-0.018095438
-0.12940794
-0.019684174
-0.13537438
-0.021372261
-0.14160698
-0.023166095
-0.14811741
-0.025073023
-0.15491831
-0.027098639
-0.16202403
-0.029250566
-0.16944763
-0.031535092
-0.1772053
-0.033959205
-0.18531298
-0.036529568
-0.19378853
-0.039252394
-0.20265043
-0.042133557
-0.21191937
-0.045178925
-0.22161627
-0.048393736
-0.23176467
-0.051782127
-0.24238969
-0.055348395
-0.25351744
-0.059096076
-0.26517612
-0.063027347
-0.27739646
-0.067144439
-0.29021012
-0.071448632
-0.30365152
-0.075940421
-0.31775691
-0.080619548
-0.33256438
-0.0854859
-0.34811483
-0.090537277
-0.36445138
-0.095771998
-0.38161941
-0.10118746
-0.39966683
-0.10678023
-0.41864449
-0.11254661
-0.43860567
-0.1184822
-0.45960698
-0.12458174
-0.48170883
-0.13083936
-0.50497369
-0.13724862
-0.52946875
-0.14380135
-0.55526538
-0.15048912
-0.58243793
-0.15730179
-0.6110668
-0.16422823
-0.64123604
-0.17125565
-0.67303566
-0.17836879
-0.7065609
-0.18555095
-0.74191357
-0.19278296
-0.77920069
-0.20004272
-0.8185373
-0.20730512
-0.86004474
-0.21454159
-0.90385216
-0.22171936
-0.95009737
-0.22880193
-0.99892593
-0.23574679
-1.0504943
-0.24250701
-1.1049658
-0.24902816
-1.1625158
-0.25524784
-1.2233236
-0.26109879
-1.2875879
-0.26650707
-1.3555028
-0.27137766
-1.4272975
-0.27562244
-1.5031928
-0.27912617
-1.5834338
-0.28177057
-1.6682648
-0.28342051
-1.7579653
-0.28393209
-1.8528333
-0.28314344
-1.9531843
-0.28085463
-2.0594049
-0.27687772
-2.1719959
-2.2906444
-0.00028456519
-0.047451102
-0.00087208681
-0.058826423
-0.0013222427
-0.057755581
-0.0019449439
-0.062523131
-0.0024962948
-0.064430782
-0.0032001069
-0.067847148
-0.0038466966
-0.070915165
-0.0046093502
-0.074212237
-0.005360631
-0.077745325
-0.0061732382
-0.081325059
-0.0070309108
-0.085147753
-0.0079413742
-0.089101124
-0.0089090848
-0.093248131
-0.009937559
-0.097575861
-0.01103184
-0.10209795
-0.012196765
-0.10682104
-0.013438009
-0.11175396
-0.014761013
-0.11690546
-0.016171828
-0.12228495
-0.017677293
-0.12790183
-0.019283527
-0.13376745
-0.020998169
-0.13989159
-0.022827717
-0.14628706
-0.024779709
-0.15296546
-0.026861882
-0.15994094
-0.029081186
-0.16722734
-0.031445322
-0.17484011
-0.033961319
-0.18279584
-0.036635771
-0.19111286
-0.039475623
-0.19980926
-0.042487055
-0.20890652
-0.045675215
-0.21842659
-0.049045044
-0.2283932
-0.052601375
-0.23883159
-0.056347873
-0.24976904
-0.060287257
-0.26123469
-0.064422338
-0.27325917
-0.068754884
-0.28587519
-0.073285816
-0.29911801
-0.078016076
-0.31302387
-0.082945521
-0.32763193
-0.088073677
-0.34298344
-0.09340013
-0.35912142
-0.098924093
-0.37609166
-0.10464376
-0.39394307
-0.11055762
-0.41272622
-0.1166635
-0.43249501
-0.12295915
-0.45330616
-0.12944201
-0.47522036
-0.13610854
-0.4983011
-0.14295539
-0.52261532
-0.1499783
-0.54823536
-0.157172
-0.57523652
-0.16453099
-0.60369945
-0.17204809
-0.63370986
-0.17971537
-0.66535854
-0.18752269
-0.69874291
-0.19545961
-0.73396508
-0.2035125
-0.77113527
-0.2116659
-0.81037033
-0.21990229
-0.85179364
-0.22820084
-0.89553768
-0.23653765
-0.9417433
-0.24488454
-0.99056035
-0.25321061
-1.042148
-0.26147877
-1.0966757
-0.26964814
-1.1543227
-0.27766822
-1.215278
-0.28548645
-1.2797422
-0.29303739
-1.3479225
-0.30025578
-1.4200476
-0.30706178
-1.4963529
-0.31336696
-1.5770922
-0.31906706
-1.6625261
-0.32405277
-1.752939
-0.3282059
-1.848637
-0.33138856
-1.9499564
-0.33344265
-2.0573092
-0.33419772
-2.1712013
-2.2913019
-0.00024617645
-0.047204753
-0.00082250424
-0.058249894
-0.0012425074
-0.05733537
-0.0018901676
-0.061875245
-0.0024225364
-0.063898174
-0.0031012585
-0.06716817
-0.0037235013
-0.07029265
-0.0044461102
-0.073489338
-0.0051856129
-0.077005513
-0.0059820905
-0.080528253
-0.0068294608
-0.084300032
-0.0077313442
-0.088198867
-0.0086945984
-0.092284477
-0.0097231987
-0.096546835
-0.010822889
-0.1009978
-0.011999447
-0.105644
-0.013259141
-0.11049375
-0.014608719
-0.11555533
-0.016055053
-0.12083801
-0.017604969
-0.12635127
-0.019267225
-0.13210451
-0.021048427
-0.13810966
-0.022957613
-0.14437709
-0.025002245
-0.15091998
-0.027190332
-0.15775194
-0.029530149
-0.16488655
-0.032029266
-0.17233994
-0.034694807
-0.18012917
-0.037534307
-0.18827214
-0.040553843
-0.19678842
-0.043759073
-0.20569988
-0.047155673
-0.21502847
-0.05074805
-0.22479918
-0.054540331
-0.23503754
-0.058535686
-0.24577178
-0.062736775
-0.25703154
-0.067145647
-0.26884807
-0.071763799
-0.28125463
-0.076592756
-0.29428645
-0.081632969
-0.30798085
-0.086885129
-0.32237674
-0.092349793
-0.33751549
-0.098027233
-0.35344043
-0.10391727
-0.37019778
-0.11002059
-0.38783559
-0.11633754
-0.40640476
-0.12286798
-0.4259597
-0.12961223
-0.44655662
-0.13657043
-0.46825645
-0.14374271
-0.49112262
-0.1511283
-0.51522301
-0.15872739
-0.54062898
-0.16653851
-0.56741748
-0.17456019
-0.59566917
-0.18279044
-0.62547028
-0.19122604
-0.65691281
-0.1998632
-0.69009475
-0.20869636
-0.72511998
-0.21771908
-0.76209959
-0.2269231
-0.80115225
-0.23629752
-0.84240398
-0.24583021
-0.88598844
-0.25550593
-0.93204964
-0.26530696
-0.98073983
-0.27521163
-1.0322221
-0.28519485
-1.0866696
-0.29522668
-1.144266
-0.30527333
-1.2052045
-0.31529244
-1.2696942
-0.3252389
-1.3379449
-0.33506289
-1.4101901
-0.3446976
-1.4866821
-0.3540791
-1.5676719
-0.36312685
-1.6534369
-0.37175481
-1.7442672
-0.37986298
-1.8404823
-0.38735075
-1.9424198
-0.39408777
-2.0505268
-0.39993935
-2.1653049
-2.2864733
-0.00021361453
-0.046990973
-0.00079165144
-0.057671664
-0.0011897718
-0.05693705
-0.0018481864
-0.061216613
-0.0023522172
-0.063393914
-0.0030246724
-0.066495469
-0.0036455384
-0.069671522
-0.0043628017
-0.072771795
-0.0051040398
-0.076263976
-0.005900198
-0.079731778
-0.0067547296
-0.08344516
-0.0076683
-0.087284935
-0.0086492147
-0.091303175
-0.0097023159
-0.09549332
-0.010834296
-0.099865376
-0.012051929
-0.10442589
-0.013362476
-0.10918269
-0.014773389
-0.11414387
-0.016293245
-0.11931757
-0.017930134
-0.12471376
-0.019692508
-0.13034146
-0.02158948
-0.13621196
-0.023629391
-0.1423364
-0.025821156
-0.14872738
-0.028173692
-0.15539851
-0.030694589
-0.16236468
-0.033391855
-0.16964163
-0.036272925
-0.17724697
-0.039344658
-0.18519919
-0.042612338
-0.19351943
-0.046082389
-0.20222842
-0.049758597
-0.21135073
-0.053645611
-0.22091052
-0.057746023
-0.23093535
-0.062062419
-0.24145346
-0.066597475
-0.2524944
-0.071352829
-0.26409047
-0.076329727
-0.2762753
-0.081529626
-0.28908393
-0.086954069
-0.30255356
-0.092604328
-0.3167234
-0.098481981
-0.3316345
-0.10458851
-0.3473303
-0.11092634
-0.36385603
-0.1174977
-0.38126
-0.12430484
-0.39959304
-0.13135131
-0.41890825
-0.13863955
-0.43926299
-0.14617348
-0.46071666
-0.1539564
-0.48333335
-0.16199211
-0.5071804
-0.17028348
-0.53233011
-0.17883434
-0.55885848
-0.187648
-0.58684666
-0.19672701
-0.61638165
-0.20607382
-0.64755554
-0.21569053
-0.68046667
-0.22557789
-0.71522027
-0.23573596
-0.7519281
-0.2461634
-0.79071023
-0.25685858
-0.83169297
-0.26781662
-0.87501319
-0.27903187
-0.92081568
-0.29049635
-0.969255
-0.3021995
-1.0204969
-0.31412801
-1.074717
-0.32626527
-1.1321027
-0.33858853
-1.192853
-0.35107518
-1.257177
-0.36369356
-1.3252935
-0.37640444
-1.3974435
-0.3891753
-1.4738727
-0.40195026
-1.5548553
-0.41467281
-1.6406698
-0.42727762
-1.7316152
-0.43970357
-1.828006
-0.45186508
-1.9302057
-0.46367804
-2.0386644
-0.47503642
-2.1538959
-2.2757451
-0.00019272728
-0.046798086
-0.00079023387
-0.057073973
-0.0011846927
-0.0565424
-0.0018369323
-0.060564165
-0.0023345016
-0.062896123
-0.003010312
-0.065819422
-0.0036452589
-0.069036322
-0.0043665912
-0.072050194
-0.0051291642
-0.075501114
-0.0059457679
-0.078914867
-0.0068288193
-0.082561779
-0.0077779197
-0.086335483
-0.0088025988
-0.090278118
-0.0099089943
-0.094386521
-0.011104915
-0.098669022
-0.012398376
-0.10313197
-0.013797974
-0.10778259
-0.015312724
-0.11262858
-0.016951453
-0.11767827
-0.018724323
-0.12294027
-0.020640361
-0.12842476
-0.022709463
-0.13414214
-0.024940681
-0.14010441
-0.027343342
-0.14632389
-0.029926166
-0.15281478
-0.03269739
-0.15959249
-0.03566415
-0.16667383
-0.038833639
-0.17407636
-0.042211302
-0.18182032
-0.045803046
-0.18992637
-0.049612511
-0.19841753
-0.053643608
-0.2073181
-0.057899362
-0.21665311
-0.062382026
-0.22645089
-0.067093727
-0.23673982
-0.072036353
-0.24754968
-0.077211261
-0.25891329
-0.082620601
-0.2708635
-0.088266037
-0.28343583
-0.094150056
-0.29666666
-0.10027535
-0.31059498
-0.10664512
-0.32526134
-0.11326341
-0.34070834
-0.12013436
-0.3569811
-0.12726276
-0.37412728
-0.1346545
-0.39219661
-0.14231535
-0.41124231
-0.15025194
-0.43132088
-0.15847097
-0.45249163
-0.16697993
-0.47481787
-0.17578634
-0.4983669
-0.18489866
-0.52321008
-0.19432462
-0.54942414
-0.20407256
-0.57708959
-0.21415026
-0.60629401
-0.22456658
-0.63712842
-0.23532873
-0.66969275
-0.24644448
-0.70409172
-0.25792108
-0.74043756
-0.26976528
-0.77885088
-0.28198251
-0.81945926
-0.29457777
-0.86239998
-0.30755471
-0.90781921
-0.32091557
-0.95587286
-0.33466133
-1.0067279
-0.34879066
-1.0605624
-0.36329962
-1.1175663
-0.37818104
-1.1779417
-0.39342809
-1.2418976
-0.40902094
-1.3096656
-0.42494746
-1.3814791
-0.44118086
-1.4575981
-0.45769717
-1.5382945
-0.47446425
-1.6238549
-0.49143732
-1.7145911
-0.5085747
-1.8108142
-0.52582617
-1.9128976
-0.54314747
-2.0212889
-0.56046044
-2.1365252
-2.258639
-0.00017323987
-0.046624694
-0.00079864148
-0.056448396
-0.0011972718
-0.056143586
-0.0018617177
-0.059899519
-0.0023757698
-0.062381858
-0.0030658402
-0.065129123
-0.0037286825
-0.068373235
-0.0044728671
-0.071305749
-0.0052741266
-0.074699575
-0.0061330669
-0.078055628
-0.007068396
-0.081626129
-0.0080803188
-0.085323218
-0.0091792132
-0.089178854
-0.01037292
-0.09319242
-0.011670642
-0.097370875
-0.013081895
-0.10172026
-0.014616641
-0.10624736
-0.016285221
-0.11095947
-0.018098165
-0.11586476
-0.020065678
-0.12097214
-0.022198464
-0.12629131
-0.024506417
-0.13183348
-0.026999016
-0.13761104
-0.029685697
-0.14363638
-0.032574432
-0.14992515
-0.035672627
-0.15649332
-0.038987512
-0.1633579
-0.042523868
-0.17053887
-0.046286743
-0.17805622
-0.050279796
-0.185932
-0.054506113
-0.19418979
-0.058968365
-0.2028543
-0.063667527
-0.21195228
-0.068606456
-0.22151015
-0.073786229
-0.23155808
-0.079208485
-0.2421253
-0.08487585
-0.25324362
-0.090790389
-0.26494647
-0.096956128
-0.27726739
-0.10337673
-0.29024313
-0.11005678
-0.30391176
-0.11700177
-0.3183129
-0.12421842
-0.33348794
-0.13171366
-0.3494818
-0.13949558
-0.36634095
-0.14757317
-0.38411422
-0.15595583
-0.40285445
-0.16465376
-0.42261729
-0.17367819
-0.44346105
-0.18304038
-0.46544898
-0.19275276
-0.48864723
-0.20282724
-0.51312765
-0.2132778
-0.53896493
-0.22411731
-0.56624066
-0.23536018
-0.59504086
-0.24701991
-0.62545749
-0.25911146
-0.65758899
-0.27164905
-0.69154083
-0.28464708
-0.72742505
-0.29812079
-0.7653614
-0.31208384
-0.80547901
-0.3265506
-0.84791449
-0.34153494
-0.89281444
-0.35704995
-0.94033555
-0.37310769
-0.99064585
-0.38971996
-1.0439236
-0.40689711
-1.1003602
-0.42464835
-1.160159
-0.44297679
-1.2235348
-0.4618873
-1.2907178
-0.48137989
-1.361946
-0.50145466
-1.4374795
-0.52210541
-1.5175962
-0.54331768
-1.6025913
-0.56508385
-1.6927698
-0.58737909
-1.78846
-0.61019258
-1.8900231
-0.63350125
-1.9979205
-0.6572727
-2.1126881
-2.2346114
-0.00015938817
-0.04646516
-0.00082722961
-0.055780385
-0.0012359217
-0.055734717
-0.0019286055
-0.059206643
-0.0024738849
-0.061836373
-0.0031916951
-0.064411093
-0.0039045989
-0.067660095
-0.0046920437
-0.070518051
-0.0055552876
-0.073836059
-0.0064839542
-0.077126671
-0.0075011162
-0.080608654
-0.0086091172
-0.084214882
-0.0098194961
-0.087968114
-0.011142231
-0.091869297
-0.012588119
-0.095924569
-0.014168487
-0.10013944
-0.015894754
-0.1045206
-0.017778472
-0.10907523
-0.019831109
-0.11381155
-0.022063831
-0.11873881
-0.024487101
-0.12386738
-0.027111167
-0.1292087
-0.029945465
-0.13477597
-0.032997674
-0.14058334
-0.03627535
-0.14664658
-0.039784367
-0.15298334
-0.043529379
-0.15961183
-0.047514408
-0.16655271
-0.051742204
-0.17382719
-0.056214686
-0.18145818
-0.060933177
-0.18946985
-0.065899346
-0.19788657
-0.071114264
-0.20673567
-0.076579358
-0.21604323
-0.082296843
-0.22583861
-0.088269182
-0.23615081
-0.094499696
-0.24701077
-0.10099338
-0.25845025
-0.10775459
-0.27050344
-0.11479036
-0.28320437
-0.12210764
-0.29659125
-0.12971582
-0.31070121
-0.1376234
-0.32557655
-0.14584128
-0.34125977
-0.15438154
-0.35779618
-0.16325593
-0.37523493
-0.17247822
-0.39362682
-0.18206296
-0.41302674
-0.19202496
-0.43349272
-0.20238064
-0.4550864
-0.21314637
-0.47787399
-0.22434052
-0.5019253
-0.23598065
-0.52731587
-0.24808599
-0.55412555
-0.26067678
-0.58243943
-0.27377328
-0.61234938
-0.28739638
-0.64395322
-0.30156863
-0.67735475
-0.3163122
-0.71266639
-0.3316496
-0.75000754
-0.34760455
-0.7895061
-0.36420121
-0.83129823
-0.38146362
-0.87553062
-0.39941572
-0.92236006
-0.41808317
-0.97195283
-0.4374904
-1.0244884
-0.45766182
-1.0801582
-0.47862134
-1.1391661
-0.50039048
-1.2017294
-0.52299325
-1.2680755
-0.54644798
-1.3384482
-0.57077204
-1.4131086
-0.595984
-1.4923334
-0.62210153
-1.5764187
-0.64913082
-1.6656809
-0.67708302
-1.7604441
-0.70596805
-1.8610722
-0.73580527
-1.9680171
-0.76658635
-2.0818324
-2.20304
-0.00015173235
-0.046313288
-0.00088130274
-0.055050653
-0.001302505
-0.055313344
-0.0020401076
-0.058468855
-0.0026342235
-0.061242059
-0.0033982004
-0.063646903
-0.0041838991
-0.066874167
-0.0050397065
-0.069661999
-0.0059906855
-0.072884815
-0.0070206346
-0.076096439
-0.0081550581
-0.079473923
-0.0093998591
-0.082969752
-0.01076814
-0.086599477
-0.01227199
-0.090365064
-0.013924096
-0.094272049
-0.015737171
-0.09832592
-0.017723948
-0.10253334
-0.019896766
-0.1069019
-0.022267598
-0.11144016
-0.024847604
-0.1161582
-0.027647159
-0.12106717
-0.03067514
-0.12618001
-0.033939211
-0.13151113
-0.037446053
-0.13707566
-0.041200107
-0.14289162
-0.045205337
-0.14897713
-0.049463475
-0.15535264
-0.053976176
-0.16203886
-0.058744347
-0.16905778
-0.063768208
-0.17643298
-0.069048589
-0.18418802
-0.074585977
-0.19234761
-0.080382242
-0.20093769
-0.086439361
-0.20998425
-0.092761041
-0.21951492
-0.099351134
-0.22955853
-0.10621584
-0.2401437
-0.11336138
-0.25130215