/*--------------------------------*- C++ -*----------------------------------*\
| =========                 |                                                 |
| \\      /  F ield         | OpenFOAM: The Open Source CFD Toolbox           |
|  \\    /   O peration     | Version:  2512                                  |
|   \\  /    A nd           | Website:  www.openfoam.com                      |
|    \\/     M anipulation  |                                                 |
\*---------------------------------------------------------------------------*/
FoamFile
{
    version     2.0;
    format      ascii;
    arch        "LSB;label=32;scalar=64";
    class       volScalarField;
    location    "0.145";
    object      rho;
}
// * * * * * * * * * * * * * * * * * * * * * * * * * * * * * * * * * * * * * //

dimensions      [1 -3 0 0 0 0 0];

internalField   nonuniform List<scalar> 
16000
(
1.0642805
1.0949377
1.0784586
1.0886689
1.0827012
1.0870715
1.0851706
1.0873289
1.0870778
1.088372
1.0888585
1.0898656
1.0906721
1.0916411
1.0926015
1.0936261
1.0946864
1.0957921
1.09694
1.0981309
1.0993643
1.1006398
1.101957
1.1033151
1.1047135
1.1061508
1.1076258
1.109137
1.1106824
1.11226
1.1138673
1.1155017
1.11716
1.1188392
1.1205356
1.1222455
1.1239649
1.1256896
1.1274153
1.1291377
1.1308521
1.1325542
1.1342394
1.1359036
1.1375423
1.1391518
1.1407282
1.142268
1.143768
1.1452253
1.1466375
1.1480023
1.1493178
1.1505826
1.1517955
1.1529555
1.1540622
1.1551152
1.1561145
1.1570601
1.1579523
1.1587914
1.1595779
1.160312
1.1609944
1.1616254
1.1622058
1.1627363
1.1632178
1.1636504
1.164034
1.164368
1.1646531
1.1648914
1.1650844
1.1652394
1.1653484
1.1652867
1.1657551
1.1646764
1.0610511
1.0922616
1.0751642
1.0859934
1.0797029
1.0844434
1.082356
1.0847476
1.0844586
1.0858693
1.0864093
1.0874908
1.0883782
1.0894221
1.0904682
1.0915768
1.0927265
1.0939235
1.0951661
1.096454
1.097787
1.0991644
1.1005853
1.1020488
1.1035536
1.1050982
1.106681
1.1082998
1.1099523
1.1116358
1.1133475
1.115084
1.1168417
1.1186169
1.1204055
1.1222029
1.1240049
1.1258066
1.1276034
1.1293904
1.1311628
1.132916
1.1346454
1.1363466
1.1380155
1.1396482
1.1412414
1.1427917
1.1442964
1.1457531
1.1471599
1.148515
1.1498172
1.1510656
1.1522595
1.1533987
1.1544831
1.1555128
1.1564883
1.1574102
1.1582789
1.1590951
1.1598595
1.1605728
1.1612353
1.1618479
1.1624111
1.1629256
1.1633924
1.1638116
1.1641828
1.1645054
1.1647795
1.1650068
1.1651904
1.1653347
1.1654127
1.1654291
1.1657173
1.1647872
1.0582515
1.0898104
1.0724035
1.0834944
1.0771108
1.0820042
1.0799385
1.0824107
1.0821947
1.0836704
1.0842986
1.0854521
1.0864311
1.0875588
1.0886985
1.0899008
1.0911483
1.0924456
1.093791
1.0951841
1.0966241
1.0981101
1.099641
1.1012154
1.1028317
1.104488
1.106182
1.1079112
1.1096727
1.1114632
1.1132792
1.1151168
1.1169717
1.1188394
1.1207152
1.1225942
1.1244713
1.1263412
1.128199
1.1300393
1.1318572
1.133648
1.135407
1.13713
1.1388131
1.1404527
1.1420458
1.1435898
1.1450823
1.1465216
1.1479064
1.1492357
1.1505089
1.1517257
1.1528861
1.1539905
1.1550393
1.1560333
1.1569733
1.1578603
1.1586951
1.1594787
1.1602119
1.1608957
1.1615306
1.1621173
1.1626565
1.1631489
1.1635953
1.163996
1.1643504
1.1646576
1.1649173
1.1651314
1.1653038
1.1654332
1.1654949
1.1655506
1.1656722
1.1649636
1.0557577
1.0876256
1.0698692
1.081283
1.0747546
1.0799048
1.077823
1.0804297
1.0802749
1.0818415
1.0825678
1.0838075
1.0848929
1.0861178
1.0873647
1.0886735
1.0900314
1.0914408
1.0929005
1.0944097
1.0959674
1.0975725
1.0992234
1.1009184
1.1026554
1.1044319
1.1062451
1.1080917
1.1099682
1.1118705
1.1137944
1.115735
1.1176874
1.1196462
1.1216062
1.1235615
1.1255067
1.1274361
1.129344
1.1312252
1.1330746
1.1348873
1.136659
1.1383857
1.1400639
1.1416907
1.1432636
1.1447805
1.1462401
1.1476414
1.1489838
1.1502672
1.1514917
1.1526578
1.1537663
1.1548182
1.1558146
1.1567567
1.1576458
1.1584833
1.1592705
1.1600085
1.1606984
1.1613412
1.1619378
1.1624887
1.1629947
1.1634564
1.1638744
1.1642491
1.1645797
1.1648651
1.1651046
1.1653
1.1654543
1.1655631
1.1656153
1.1656657
1.1657039
1.1651147
1.0536512
1.0858418
1.0677596
1.0794895
1.072743
1.0781844
1.0761177
1.078847
1.078783
1.0804408
1.0812855
1.0826184
1.0838216
1.0851527
1.0865153
1.0879393
1.0894158
1.090946
1.0925288
1.0941632
1.0958478
1.0975812
1.0993612
1.1011855
1.1030513
1.1049554
1.1068941
1.1088633
1.1108585
1.1128747
1.1149067
1.1169487
1.1189949
1.1210392
1.1230754
1.1250972
1.1270984
1.1290731
1.1310154
1.13292
1.1347818
1.1365963
1.1383596
1.1400682
1.1417193
1.1433107
1.1448409
1.1463086
1.1477136
1.1490556
1.1503352
1.151553
1.1527101
1.1538078
1.1548477
1.1558314
1.1567605
1.1576368
1.1584621
1.1592381
1.1599663
1.1606482
1.161285
1.1618778
1.1624276
1.1629349
1.1634003
1.1638245
1.164208
1.1645509
1.1648525
1.1651113
1.1653263
1.1654989
1.1656308
1.1657177
1.1657574
1.1657882
1.1657567
1.1652883
1.051943
1.0844402
1.0660797
1.0781188
1.0713373
1.0769035
1.0748456
1.0777268
1.0777646
1.0795212
1.0804941
1.081923
1.0832499
1.0846947
1.086181
1.0877304
1.0893367
1.091
1.0927188
1.0944916
1.0963166
1.0981912
1.1001127
1.1020779
1.104083
1.1061237
1.1081954
1.1102927
1.1124101
1.1145415
1.1166804
1.1188202
1.120954
1.1230748
1.1251758
1.1272501
1.1292912
1.1312928
1.1332493
1.1351553
1.1370064
1.1387984
1.1405283
1.1421934
1.1437919
1.1453227
1.1467852
1.1481796
1.1495065
1.1507669
1.1519623
1.1530944
1.1541651
1.1551767
1.1561312
1.1570311
1.1578785
1.1586756
1.1594246
1.1601275
1.1607861
1.1614019
1.1619764
1.1625106
1.1630056
1.1634618
1.1638799
1.1642602
1.1646032
1.1649088
1.1651762
1.1654035
1.1655898
1.1657354
1.1658405
1.1659036
1.1659277
1.1659272
1.1658446
1.1654745
1.0506297
1.0834336
1.0648207
1.077165
1.0703241
1.0760715
1.0740867
1.0770747
1.0772448
1.0790661
1.0801766
1.0817101
1.083175
1.0847504
1.086378
1.0880718
1.0898268
1.091642
1.0935153
1.0954443
1.0974262
1.0994577
1.101535
1.1036536
1.1058086
1.1079945
1.1102052
1.1124342
1.1146744
1.1169186
1.1191591
1.1213881
1.1235979
1.1257807
1.127929
1.1300357
1.1320941
1.1340981
1.1360424
1.1379224
1.1397341
1.1414747
1.1431419
1.1447346
1.1462521
1.1476947
1.1490632
1.1503591
1.1515841
1.1527405
1.1538309
1.1548579
1.1558245
1.1567334
1.1575876
1.1583899
1.159143
1.1598494
1.1605116
1.1611317
1.1617117
1.1622533
1.1627579
1.1632266
1.1636603
1.1640595
1.1644245
1.1647558
1.1650534
1.1653173
1.1655462
1.1657385
1.1658925
1.1660075
1.1660827
1.1661207
1.1661259
1.1660868
1.1659607
1.1656872
1.049646
1.0827581
1.0639131
1.0766147
1.0697157
1.0756842
1.0737142
1.0768812
1.0770942
1.0790396
1.0803282
1.0819977
1.0836295
1.0853639
1.0871584
1.0890212
1.0909484
1.092938
1.094987
1.0970921
1.0992495
1.1014545
1.1037021
1.1059863
1.1083007
1.1106382
1.1129912
1.1153516
1.1177108
1.1200603
1.122391
1.1246943
1.1269616
1.1291845
1.1313553
1.1334668
1.1355129
1.1374878
1.1393872
1.1412076
1.1429462
1.1446018
1.1461736
1.147662
1.1490681
1.1503936
1.151641
1.152813
1.1539128
1.1549438
1.1559096
1.1568138
1.1576601
1.1584519
1.1591927
1.1598856
1.1605337
1.1611399
1.1617065
1.162236
1.1627304
1.1631912
1.16362
1.1640176
1.1643849
1.1647223
1.16503
1.1653081
1.1655565
1.165775
1.1659621
1.1661161
1.1662351
1.1663166
1.1663596
1.1663715
1.166354
1.16627
1.1661106
1.1659297
1.0490106
1.0824225
1.0633625
1.0764924
1.0694262
1.07552
1.073688
1.076962
1.0774922
1.0795568
1.0810489
1.0828773
1.0846987
1.0866172
1.0886029
1.0906597
1.0927832
1.0949705
1.0972173
1.099519
1.1018702
1.1042647
1.1066955
1.109155
1.1116348
1.114126
1.1166191
1.1191043
1.1215715
1.1240106
1.1264117
1.1287653
1.1310621
1.1332938
1.135453
1.137533
1.1395285
1.1414353
1.1432502
1.1449717
1.1465989
1.1481322
1.1495731
1.1509239
1.1521873
1.153367
1.1544669
1.1554911
1.1564442
1.1573306
1.1581547
1.158921
1.1596335
1.1602965
1.1609134
1.1614879
1.1620231
1.1625219
1.1629868
1.1634202
1.1638239
1.1641995
1.1645483
1.1648711
1.1651686
1.165441
1.1656883
1.1659104
1.166107
1.1662775
1.1664205
1.1665342
1.1666162
1.1666621
1.1666716
1.1666573
1.1666133
1.1664804
1.1662972
1.1662066
1.0487676
1.0824728
1.0632154
1.0767074
1.0695759
1.0760526
1.0743678
1.0777566
1.0784705
1.0806787
1.0824047
1.0844221
1.0864608
1.0885935
1.0907991
1.0930777
1.0954243
1.0978343
1.1003019
1.1028205
1.1053827
1.1079802
1.1106038
1.1132435
1.1158888
1.1185284
1.121151
1.1237449
1.1262986
1.1288008
1.1312408
1.1336088
1.1358957
1.1380938
1.1401965
1.1421988
1.1440971
1.1458891
1.1475742
1.1491529
1.150627
1.1519992
1.1532731
1.1544531
1.1555441
1.1565511
1.1574797
1.1583353
1.1591234
1.1598493
1.1605181
1.1611348
1.1617038
1.1622293
1.1627154
1.1631654
1.1635826
1.1639697
1.1643292
1.1646633
1.1649736
1.1652615
1.1655282
1.1657744
1.1660002
1.166206
1.1663913
1.166556
1.1666993
1.1668204
1.166918
1.1669903
1.167034
1.1670432
1.1670194
1.1669789
1.1669052
1.1667223
1.1665258
1.1665208
1.0489904
1.082985
1.0635441
1.0772601
1.0702897
1.0769022
1.0755756
1.0790123
1.0801123
1.0824882
1.0844825
1.086725
1.0890127
1.0913928
1.0938496
1.0963803
1.0989782
1.1016366
1.1043474
1.1071014
1.1098885
1.1126977
1.115517
1.1183337
1.1211346
1.1239063
1.1266353
1.1293083
1.1319128
1.1344368
1.1368696
1.1392019
1.1414258
1.1435351
1.1455256
1.1473947
1.1491415
1.1507668
1.1522729
1.1536631
1.154942
1.1561149
1.1571877
1.1581669
1.1590591
1.1598708
1.1606087
1.1612793
1.1618888
1.1624429
1.1629472
1.1634068
1.1638264
1.16421
1.1645616
1.1648845
1.1651817
1.1654557
1.1657088
1.1659429
1.1661594
1.1663595
1.1665439
1.1667131
1.1668673
1.1670063
1.1671296
1.1672367
1.1673265
1.1673981
1.1674502
1.167481
1.1674861
1.1674586
1.1674029
1.1673367
1.1672298
1.166999
1.1668021
1.1668765
1.0497376
1.0840203
1.0644344
1.0785288
1.07176
1.0785397
1.0774336
1.0810935
1.0825064
1.0850836
1.0873809
1.0898894
1.0924624
1.0951273
1.0978706
1.1006861
1.1035648
1.1064968
1.1094706
1.112474
1.1154932
1.1185139
1.1215207
1.124498
1.1274298
1.1303007
1.1330953
1.1357996
1.1384005
1.1408866
1.1432487
1.1454791
1.1475728
1.1495267
1.15134
1.1530136
1.1545506
1.1559551
1.157233
1.1583907
1.1594356
1.1603754
1.1612183
1.1619722
1.1626451
1.1632449
1.1637788
1.1642539
1.1646766
1.1650531
1.1653887
1.1656885
1.165957
1.1661981
1.1664154
1.1666118
1.1667902
1.1669526
1.1671009
1.1672367
1.1673612
1.1674751
1.167579
1.167673
1.167757
1.1678307
1.1678932
1.1679439
1.1679814
1.1680044
1.168012
1.168002
1.1679691
1.1679065
1.1678215
1.16773
1.1675868
1.1673123
1.1671281
1.1672771
1.0509963
1.0855631
1.0658685
1.0803114
1.073853
1.0807888
1.0801019
1.0839093
1.085742
1.088568
1.0912116
1.0940361
1.0969382
1.0999303
1.1029987
1.1061331
1.1093206
1.1125471
1.1157971
1.1190539
1.1222997
1.1255161
1.1286844
1.1317857
1.1348019
1.1377157
1.1405115
1.1431755
1.1456961
1.1480645
1.1502743
1.1523222
1.1542073
1.1559311
1.1574974
1.1589119
1.1601815
1.1613146
1.1623201
1.1632076
1.1639868
1.1646676
1.1652594
1.1657715
1.1662128
1.1665913
1.1669149
1.1671906
1.1674247
1.1676231
1.167791
1.167933
1.1680532
1.168155
1.1682417
1.1683156
1.1683791
1.1684339
1.1684815
1.168523
1.1685593
1.1685907
1.1686174
1.1686394
1.1686563
1.1686674
1.1686718
1.1686684
1.1686558
1.1686325
1.1685976
1.1685486
1.1684792
1.1683842
1.1682736
1.1681572
1.1679754
1.167666
1.1675086
1.1677185
1.0528521
1.0876921
1.0679541
1.0828449
1.076645
1.0838442
1.083635
1.0876484
1.0899486
1.0930829
1.0961215
1.0993178
1.1025982
1.1059631
1.1093953
1.1128791
1.1163964
1.1199278
1.1234526
1.1269487
1.1303939
1.1337656
1.1370416
1.1402009
1.1432243
1.1460949
1.1487987
1.1513249
1.1536661
1.1558183
1.1577809
1.1595564
1.1611497
1.1625681
1.1638206
1.1649175
1.1658701
1.1666899
1.1673891
1.1679792
1.1684718
1.1688778
1.1692077
1.169471
1.1696768
1.1698331
1.1699475
1.1700265
1.1700762
1.1701017
1.1701077
1.1700983
1.1700767
1.1700461
1.1700088
1.169967
1.1699222
1.1698758
1.1698287
1.1697817
1.1697352
1.1696893
1.1696438
1.1695984
1.1695524
1.1695049
1.1694549
1.1694009
1.1693415
1.1692751
1.1692007
1.1691151
1.1690118
1.1688885
1.1687569
1.1686156
1.1683943
1.1680629
1.167946
1.1681982
1.055363
1.0904543
1.0708109
1.0861368
1.0803148
1.0877856
1.0881787
1.0924325
1.0952771
1.0987978
1.1022923
1.1059235
1.1096351
1.1134163
1.1172441
1.1210963
1.1249481
1.1287735
1.1325454
1.1362363
1.1398192
1.143268
1.146559
1.1496714
1.1525879
1.1552956
1.1577857
1.1600539
1.1621001
1.1639279
1.1655442
1.1669584
1.1681823
1.1692288
1.1701118
1.1708459
1.1714455
1.1719248
1.1722975
1.1725766
1.1727743
1.1729019
1.1729697
1.172987
1.1729624
1.1729034
1.1728166
1.1727081
1.1725828
1.1724454
1.1722996
1.1721487
1.1719953
1.1718418
1.17169
1.1715412
1.1713967
1.1712572
1.1711231
1.1709949
1.1708725
1.1707557
1.170644
1.1705368
1.1704332
1.1703322
1.1702324
1.1701323
1.1700302
1.1699248
1.1698146
1.1696956
1.169562
1.1694153
1.1692674
1.1691015
1.168841
1.1685037
1.1684403
1.1687125
1.058596
1.0938812
1.0746034
1.0902985
1.0850623
1.0927695
1.093901
1.0984767
1.1019456
1.1059437
1.1099599
1.1140868
1.1182751
1.1225029
1.1267399
1.1309548
1.1351146
1.1391855
1.1431336
1.1469267
1.1505349
1.1539322
1.1570976
1.1600151
1.1626747
1.1650718
1.1672075
1.169087
1.1707201
1.1721192
1.1732995
1.1742776
1.1750708
1.1756972
1.1761742
1.1765191
1.1767482
1.1768768
1.1769191
1.1768882
1.176796
1.176653
1.1764689
1.1762521
1.1760101
1.1757493
1.1754754
1.1751934
1.1749072
1.1746205
1.1743361
1.1740565
1.1737836
1.1735189
1.1732637
1.1730186
1.1727843
1.172561
1.1723489
1.1721477
1.1719572
1.1717768
1.1716058
1.1714433
1.1712881
1.1711392
1.1709949
1.1708536
1.1707138
1.1705741
1.1704324
1.1702839
1.1701243
1.1699597
1.1697998
1.1696106
1.1693135
1.1689852
1.1689878
1.1692522
1.0626334
1.0980615
1.0794184
1.0954922
1.0910351
1.0990476
1.1010726
1.1060656
1.1102376
1.1148021
1.1193991
1.1240689
1.1287604
1.1334389
1.1380627
1.1425894
1.1469765
1.1511826
1.1551702
1.1589065
1.162365
1.1655268
1.1683801
1.1709208
1.1731514
1.1750804
1.176721
1.1780902
1.1792077
1.1800947
1.1807732
1.1812652
1.1815923
1.1817752
1.1818332
1.1817843
1.1816451
1.1814306
1.1811541
1.1808278
1.1804623
1.1800668
1.1796497
1.1792179
1.1787776
1.178334
1.1778914
1.1774535
1.1770234
1.1766037
1.1761962
1.1758025
1.1754238
1.175061
1.1747145
1.1743845
1.1740712
1.1737743
1.1734935
1.1732283
1.1729781
1.1727419
1.1725188
1.1723078
1.1721076
1.1719168
1.1717339
1.171557
1.1713847
1.1712157
1.1710471
1.1708737
1.1706935
1.170516
1.170347
1.1701375
1.1698118
1.1695023
1.1695754
1.1698181
1.0676613
1.1034522
1.0855103
1.1020464
1.0985863
1.1069551
1.1100217
1.1155341
1.1204765
1.1256872
1.1309109
1.1361453
1.1413281
1.1464073
1.1513273
1.156035
1.1604814
1.164625
1.1684325
1.1718809
1.174957
1.1776577
1.1799884
1.1819619
1.1835969
1.1849165
1.1859464
1.186714
1.187247
1.1875727
1.1877174
1.1877059
1.1875612
1.1873042
1.1869541
1.1865278
1.1860407
1.185506
1.1849354
1.1843392
1.1837262
1.183104
1.1824788
1.1818563
1.181241
1.1806366
1.1800463
1.1794725
1.1789172
1.178382
1.1778678
1.1773755
1.1769055
1.1764579
1.1760328
1.1756298
1.1752484
1.1748882
1.1745484
1.1742282
1.1739266
1.1736426
1.173375
1.1731225
1.1728839
1.1726576
1.1724418
1.1722351
1.1720359
1.1718427
1.1716519
1.1714588
1.1712637
1.1710781
1.1709016
1.1706759
1.1703361
1.1700518
1.170188
1.1704132
1.0739738
1.1102845
1.0930789
1.1103088
1.108076
1.1168401
1.121103
1.1272615
1.133039
1.1389574
1.1448163
1.1505735
1.1561488
1.1614732
1.1664822
1.1711216
1.1753494
1.1791377
1.1824722
1.1853519
1.1877869
1.1897968
1.191408
1.192652
1.1935627
1.1941755
1.1945254
1.1946462
1.19457
1.1943264
1.1939424
1.1934425
1.1928485
1.1921795
1.1914526
1.1906824
1.1898816
1.1890612
1.1882305
1.1873973
1.1865685
1.1857495
1.1849449
1.1841585
1.1833934
1.1826519
1.1819358
1.1812466
1.1805852
1.1799522
1.1793479
1.1787723
1.1782253
1.1777063
1.1772149
1.1767503
1.1763117
1.1758982
1.1755087
1.1751423
1.1747976
1.1744735
1.1741687
1.1738817
1.1736111
1.1733554
1.1731128
1.1728818
1.1726612
1.1724488
1.1722409
1.1720334
1.1718295
1.17164
1.1714564
1.1712178
1.1708817
1.1706369
1.1708208
1.1710197
1.0818441
1.1188254
1.1026011
1.1205471
1.1199225
1.1291686
1.1347894
1.1417385
1.1483802
1.1549881
1.1613777
1.1674725
1.1731814
1.1784335
1.1831749
1.1873715
1.1910087
1.1940897
1.1966322
1.1986659
1.2002284
1.2013626
1.2021138
1.2025276
1.2026483
1.2025179
1.2021752
1.2016555
1.2009904
1.2002082
1.1993334
1.1983875
1.1973891
1.1963541
1.1952961
1.1942265
1.1931551
1.19209
1.1910379
1.1900043
1.1889936
1.1880096
1.1870551
1.1861321
1.1852425
1.1843872
1.183567
1.1827824
1.1820333
1.1813196
1.1806408
1.1799965
1.1793858
1.178808
1.1782619
1.1777465
1.1772608
1.1768034
1.1763731
1.1759687
1.1755887
1.1752318
1.1748965
1.1745815
1.1742852
1.1740059
1.1737421
1.1734924
1.1732554
1.1730288
1.1728084
1.1725921
1.1723851
1.1721956
1.1720066
1.1717584
1.1714369
1.1712467
1.1714697
1.1716226
1.0914788
1.1293735
1.1148394
1.1333679
1.1348169
1.1446629
1.1517238
1.1595199
1.1669075
1.1739858
1.1805791
1.1866019
1.191981
1.1966758
1.2006724
1.2039815
1.2066331
1.2086718
1.2101516
1.2111312
1.2116713
1.2118308
1.2116659
1.2112284
1.2105652
1.2097182
1.2087241
1.2076149
1.2064182
1.2051576
1.2038532
1.2025219
1.2011778
1.1998329
1.1984969
1.1971778
1.1958822
1.1946154
1.1933816
1.1921841
1.1910254
1.1899074
1.1888312
1.1877977
1.1868073
1.1858602
1.1849559
1.1840942
1.1832743
1.1824955
1.1817567
1.1810569
1.1803949
1.1797695
1.1791792
1.1786229
1.178099
1.1776063
1.1771431
1.1767082
1.1762999
1.1759168
1.1755574
1.1752203
1.1749038
1.1746064
1.1743265
1.1740631
1.1738144
1.1735777
1.1733496
1.1731297
1.1729243
1.1727377
1.1725458
1.1722944
1.1719966
1.1718642
1.1721119
1.1722097
1.1036826
1.1428338
1.1305869
1.1497498
1.1537031
1.1641731
1.1725059
1.1809337
1.1886495
1.1956646
1.2018516
1.2071666
1.2115973
1.215168
1.217928
1.2199446
1.2212953
1.2220614
1.222324
1.2221599
1.22164
1.220828
1.2197806
1.2185466
1.2171685
1.2156821
1.2141178
1.2125011
1.2108532
1.2091918
1.2075311
1.2058831
1.2042573
1.2026615
1.2011017
1.1995827
1.1981083
1.1966812
1.1953035
1.1939764
1.1927007
1.1914769
1.1903049
1.1891843
1.1881146
1.187095
1.1861246
1.1852021
1.1843264
1.1834961
1.1827098
1.1819661
1.1812635
1.1806004
1.1799752
1.1793864
1.1788324
1.1783116
1.1778226
1.1773636
1.1769331
1.1765297
1.1761517
1.1757976
1.1754659
1.1751551
1.1748638
1.1745908
1.1743344
1.1740917
1.17386
1.1736409
1.1734404
1.1732584
1.1730664
1.1728204
1.1725552
1.1724728
1.1727215
1.1727685
1.1199254
1.1603204
1.151182
1.1706935
1.1774169
1.1882952
1.1972723
1.2056443
1.2128741
1.2189829
1.2239511
1.2278287
1.2306945
1.2326508
1.2338095
1.2342843
1.234184
1.2336087
1.2326481
1.2313804
1.2298729
1.2281827
1.2263576
1.2244374
1.2224548
1.2204366
1.2184048
1.216377
1.2143673
1.2123872
1.2104455
1.2085493
1.2067038
1.2049132
1.2031803
1.2015072
1.1998951
1.1983449
1.1968566
1.1954301
1.1940647
1.1927598
1.1915142
1.1903267
1.1891961
1.1881207
1.1870991
1.1861297
1.1852108
1.1843406
1.1835175
1.1827396
1.1820053
1.1813128
1.1806604
1.1800463
1.1794688
1.1789263
1.1784171
1.1779396
1.1774921
1.1770732
1.1766812
1.1763145
1.1759718
1.1756516
1.1753527
1.1750737
1.1748127
1.1745673
1.1743357
1.1741206
1.1739271
1.1737502
1.1735608
1.1733276
1.1731008
1.1730595
1.1732928
1.1733037
1.1418591
1.1830606
1.1779369
1.1970499
1.2060605
1.2166587
1.2251369
1.2322967
1.2379463
1.2421975
1.2451647
1.2470066
1.2478866
1.2479651
1.2473897
1.2462913
1.244783
1.2429603
1.2409026
1.2386752
1.2363312
1.2339134
1.2314564
1.2289873
1.2265279
1.2240952
1.2217025
1.2193599
1.2170752
1.2148542
1.2127011
1.2106188
1.2086092
1.2066733
1.2048116
1.2030238
1.2013095
1.1996677
1.1980972
1.1965967
1.1951645
1.1937989
1.1924982
1.1912606
1.190084
1.1889666
1.1879064
1.1869013
1.1859495
1.1850489
1.1841975
1.1833935
1.1826349
1.1819197
1.1812463
1.1806127
1.1800171
1.1794579
1.1789333
1.1784417
1.1779814
1.1775509
1.1771485
1.1767729
1.1764226
1.1760961
1.1757925
1.1755103
1.1752475
1.1750019
1.1747732
1.1745642
1.1743783
1.1742069
1.174023
1.1738087
1.173623
1.173616
1.1738213
1.1737853
1.1720786
1.211645
1.2117395
1.2294495
1.2383765
1.2472926
1.2538656
1.2586251
1.2616894
1.263338
1.2638115
1.2633446
1.2621396
1.260369
1.2581748
1.2556725
1.2529541
1.2500928
1.2471458
1.2441577
1.2411631
1.2381884
1.2352538
1.2323748
1.2295625
1.2268253
1.2241691
1.221598
1.2191144
1.2167199
1.2144148
1.2121989
1.2100716
1.2080316
1.2060775
1.2042075
1.2024196
1.2007119
1.199082
1.1975278
1.196047
1.1946372
1.1932962
1.1920216
1.1908111
1.1896625
1.1885734
1.1875416
1.1865649
1.1856413
1.1847685
1.1839445
1.1831672
1.1824347
1.1817451
1.1810965
1.180487
1.179915
1.1793786
1.1788762
1.1784063
1.1779671
1.1775573
1.1771753
1.1768197
1.1764895
1.1761832
1.1758996
1.1756368
1.1753932
1.175169
1.1749671
1.1747884
1.1746227
1.1744477
1.174257
1.1741106
1.1741254
1.1742969
1.1742385
1.2131025
1.2476689
1.250627
1.2646199
1.2721601
1.2777391
1.2808514
1.2821823
1.2820466
1.2808132
1.2787583
1.2761106
1.2730471
1.2697045
1.266187
1.2625733
1.2589222
1.2552776
1.2516719
1.2481286
1.2446647
1.2412924
1.2380196
1.234852
1.2317925
1.2288428
1.2260033
1.2232734
1.2206517
1.2181365
1.2157256
1.2134167
1.2112072
1.2090942
1.207075
1.2051467
1.2033066
1.2015516
1.1998789
1.1982858
1.1967694
1.195327
1.193956
1.1926538
1.1914176
1.1902451
1.1891339
1.1880814
1.1870854
1.1861436
1.1852538
1.1844139
1.1836217
1.1828753
1.1821726
1.1815118
1.180891
1.1803085
1.1797626
1.1792515
1.1787738
1.1783277
1.177912
1.1775251
1.1771658
1.1768328
1.1765251
1.1762411
1.1759793
1.1757386
1.1755196
1.1753243
1.1751517
1.1749919
1.1748285
1.1746633
1.1745496
1.1745716
1.1747034
1.1746378
1.2623307
1.2884985
1.2927586
1.300441
1.303325
1.304198
1.3031375
1.3008256
1.2976182
1.2938243
1.289658
1.2852775
1.2807949
1.2762899
1.2718186
1.2674201
1.263121
1.2589391
1.2548859
1.2509682
1.2471896
1.2435514
1.2400529
1.2366927
1.2334681
1.2303761
1.2274132
1.2245759
1.2218603
1.2192624
1.2167785
1.2144046
1.212137
1.2099719
1.2079057
1.2059348
1.2040557
1.2022651
1.2005598
1.1989365
1.1973921
1.1959237
1.1945284
1.1932034
1.1919459
1.1907534
1.1896231
1.1885528
1.1875399
1.1865822
1.1856773
1.1848232
1.1840176
1.1832584
1.1825439
1.1818719
1.1812407
1.1806486
1.1800938
1.1795747
1.1790896
1.1786372
1.1782159
1.1778245
1.1774617
1.1771263
1.1768171
1.1765328
1.1762722
1.1760344
1.1758201
1.17563
1.1754623
1.1753088
1.1751596
1.1750204
1.1749309
1.1749427
1.1750248
1.174968
1.3171261
1.3288379
1.3302754
1.3303691
1.3277167
1.3238202
1.3189932
1.3136696
1.3080859
1.3024143
1.2967632
1.2912039
1.2857809
1.2805216
1.2754415
1.2705485
1.2658452
1.2613308
1.2570023
1.2528553
1.2488844
1.2450839
1.2414476
1.2379696
1.2346438
1.2314642
1.2284251
1.225521
1.2227464
1.2200962
1.2175656
1.2151497
1.2128442
1.2106446
1.2085468
1.206547
1.2046411
1.2028257
1.2010972
1.1994522
1.1978875
1.1963999
1.1949865
1.1936443
1.1923706
1.1911625
1.1900176
1.1889333
1.1879071
1.1869367
1.1860198
1.1851542
1.1843377
1.1835683
1.182844
1.182163
1.1815234
1.1809234
1.1803613
1.1798356
1.1793446
1.1788869
1.1784611
1.1780659
1.1777002
1.1773627
1.1770524
1.176768
1.1765084
1.1762733
1.1760627
1.1758765
1.1757126
1.1755656
1.1754311
1.1753149
1.1752412
1.1752365
1.1752762
1.1752361
1.36715
1.3613934
1.3570202
1.351044
1.3438422
1.3364206
1.328951
1.3216175
1.314503
1.3076532
1.301088
1.2948122
1.2888228
1.2831115
1.2776678
1.2724798
1.2675354
1.2628226
1.2583296
1.2540452
1.2499589
1.2460609
1.2423417
1.2387926
1.2354056
1.232173
1.2290876
1.2261428
1.2233324
1.2206503
1.2180912
1.2156497
1.213321
1.2111002
1.2089831
1.2069654
1.2050431
1.2032124
1.2014695
1.1998111
1.1982337
1.1967342
1.1953095
1.1939566
1.1926726
1.1914548
1.1903005
1.1892073
1.1881725
1.187194
1.1862692
1.1853962
1.1845726
1.1837965
1.1830658
1.1823787
1.1817333
1.181128
1.1805609
1.1800306
1.1795354
1.1790739
1.1786448
1.1782467
1.1778786
1.1775393
1.1772277
1.1769427
1.1766835
1.1764497
1.1762409
1.1760565
1.1758946
1.1757527
1.1756296
1.1755295
1.1754636
1.1754417
1.1754504
1.1754288
1.3941871
1.382865
1.3720573
1.3626011
1.3532741
1.3442753
1.3356799
1.3275052
1.3197516
1.3124031
1.30544
1.2988398
1.29258
1.2866391
1.2809967
1.2756339
1.2705332
1.2656787
1.2610557
1.2566509
1.2524519
1.2484476
1.2446276
1.2409825
1.2375034
1.2341822
1.2310115
1.2279844
1.2250942
1.2223349
1.2197009
1.2171868
1.2147876
1.2124985
1.210315
1.2082329
1.2062482
1.204357
1.2025555
1.2008404
1.1992082
1.1976557
1.1961798
1.1947775
1.1934459
1.1921824
1.1909841
1.1898487
1.1887735
1.1877561
1.1867944
1.185886
1.1850287
1.1842206
1.1834596
1.1827437
1.1820712
1.1814403
1.1808493
1.1802965
1.1797804
1.1792995
1.1788525
1.1784381
1.1780551
1.1777023
1.1773787
1.1770833
1.1768153
1.1765742
1.1763594
1.1761702
1.1760049
1.1758623
1.1757424
1.1756481
1.1755841
1.1755525
1.1755447
1.175535
1.1643009
1.1704353
1.1832219
1.194529
1.1986307
1.1984684
1.1994449
1.1998265
1.1999735
1.1998991
1.1995927
1.1991549
1.198583
1.197942
1.1972607
1.19655
1.1958081
1.1950398
1.1942495
1.1934408
1.1926168
1.1917804
1.1909341
1.1900804
1.1892214
1.1883591
1.1874953
1.1866319
1.1857705
1.1849129
1.1840605
1.1832149
1.1823775
1.1815498
1.1807331
1.1799287
1.179138
1.1783623
1.1776028
1.1768609
1.1761376
1.1754344
1.1747523
1.1740925
1.1734562
1.1728445
1.1722584
1.171699
1.1711673
1.170664
1.17019
1.1697459
1.1693322
1.1689492
1.1685973
1.1682763
1.1679862
1.1677266
1.1674969
1.1672962
1.1671231
1.1669762
1.1668536
1.1667532
1.1666727
1.1666085
1.166559
1.1665173
1.1664894
1.1664518
1.1664445
1.1663714
1.1664071
1.1662236
1.1663858
1.165941
1.1663778
1.1654964
1.1663346
1.164864
1.1676407
1.175821
1.1919304
1.1970319
1.1971192
1.1966449
1.1959221
1.1955538
1.1951296
1.1946615
1.1941608
1.1936951
1.1932279
1.1927581
1.1922639
1.1917457
1.191203
1.1906372
1.1900488
1.1894387
1.1888081
1.1881586
1.1874917
1.1868094
1.1861136
1.1854061
1.184689
1.1839643
1.183234
1.1825
1.1817643
1.1810287
1.180295
1.1795652
1.1788409
1.178124
1.177416
1.1767188
1.1760339
1.175363
1.1747075
1.1740691
1.1734492
1.1728493
1.1722707
1.1717147
1.1711827
1.1706758
1.1701952
1.1697417
1.1693163
1.1689197
1.1685523
1.1682147
1.1679071
1.1676294
1.1673815
1.167163
1.1669732
1.1668112
1.1666756
1.1665646
1.1664766
1.1664092
1.16636
1.1663256
1.166304
1.1662889
1.1662851
1.1662715
1.1662833
1.166234
1.1662811
1.1661222
1.1662866
1.1658725
1.1663081
1.1654451
1.1663035
1.1648048
1.1584186
1.1741143
1.1861623
1.1908277
1.1906648
1.1901481
1.1895413
1.1893396
1.1890349
1.1888385
1.1885762
1.1883261
1.1880262
1.1877111
1.1873653
1.1869984
1.1866067
1.186192
1.1857545
1.1852952
1.1848151
1.1843152
1.1837969
1.1832614
1.1827101
1.1821444
1.181566
1.1809763
1.180377
1.1797699
1.1791565
1.1785388
1.1779185
1.1772975
1.1766776
1.1760606
1.1754485
1.1748429
1.1742459
1.1736592
1.1730846
1.1725237
1.1719784
1.1714502
1.1709408
1.1704516
1.1699841
1.1695397
1.1691197
1.168725
1.1683567
1.1680155
1.1677021
1.1674169
1.1671602
1.166932
1.1667321
1.16656
1.1664151
1.1662963
1.1662021
1.1661309
1.1660808
1.1660495
1.1660344
1.1660322
1.1660407
1.166054
1.166076
1.1660877
1.1661201
1.1660949
1.1661552
1.16602
1.1661886
1.1658043
1.1662377
1.165394
1.1662724
1.1647457
1.1573853
1.1771071
1.1846816
1.1880176
1.1868519
1.1864682
1.1857387
1.1854868
1.1850375
1.1847369
1.1843592
1.1840487
1.1837126
1.1833963
1.1830671
1.182736
1.182395
1.1820455
1.1816855
1.1813138
1.1809301
1.1805335
1.180124
1.1797014
1.1792659
1.178818
1.1783582
1.1778874
1.1774064
1.1769164
1.1764186
1.1759143
1.1754051
1.1748925
1.1743781
1.1738636
1.1733509
1.1728417
1.1723378
1.1718411
1.1713534
1.1708765
1.1704123
1.1699625
1.1695288
1.1691129
1.1687163
1.1683406
1.167987
1.1676568
1.1673509
1.1670703
1.1668156
1.1665873
1.1663857
1.1662107
1.1660623
1.1659398
1.1658426
1.1657696
1.1657192
1.1656897
1.1656793
1.1656855
1.1657058
1.1657368
1.1657762
1.1658187
1.1658671
1.1659043
1.165958
1.1659563
1.1660312
1.1659178
1.1660936
1.165735
1.1661705
1.1653433
1.1662411
1.164691
1.1551216
1.1751477
1.180565
1.1832272
1.1815814
1.1814514
1.1806861
1.1805597
1.1801224
1.1799201
1.1796044
1.1793803
1.1791128
1.1788741
1.1786198
1.1783692
1.1781112
1.1778486
1.1775785
1.1772999
1.1770123
1.1767148
1.176407
1.1760885
1.1757591
1.175419
1.1750683
1.1747073
1.1743367
1.173957
1.1735691
1.173174
1.1727728
1.1723668
1.1719573
1.1715458
1.171134
1.1707234
1.1703157
1.1699127
1.1695163
1.1691281
1.1687501
1.168384
1.1680316
1.1676946
1.1673746
1.1670732
1.1667917
1.1665314
1.1662933
1.1660783
1.1658872
1.1657204
1.1655782
1.1654607
1.1653675
1.1652981
1.1652519
1.1652276
1.1652236
1.1652383
1.1652696
1.1653152
1.1653725
1.1654381
1.1655096
1.165582
1.1656576
1.1657209
1.1657966
1.1658185
1.1659086
1.1658168
1.1660005
1.1656665
1.1661048
1.1652936
1.1662112
1.164639
1.1498329
1.172088
1.1758348
1.1782697
1.1763378
1.1765624
1.1757681
1.1757917
1.1753749
1.1752647
1.1749916
1.1748409
1.1746328
1.1744667
1.1742813
1.1741046
1.1739211
1.1737361
1.1735459
1.1733499
1.1731474
1.1729376
1.17272
1.1724942
1.1722597
1.1720164
1.1717643
1.1715033
1.1712336
1.1709557
1.1706701
1.1703775
1.1700786
1.1697744
1.1694661
1.1691549
1.1688421
1.1685292
1.1682176
1.1679091
1.1676053
1.1673079
1.1670186
1.1667392
1.1664714
1.166217
1.1659774
1.1657543
1.1655489
1.1653626
1.1651963
1.1650509
1.1649272
1.1648256
1.1647464
1.1646895
1.1646547
1.1646414
1.1646487
1.1646755
1.16472
1.1647806
1.1648553
1.1649417
1.1650372
1.1651383
1.1652428
1.1653458
1.1654491
1.1655387
1.1656367
1.165682
1.165788
1.1657176
1.1659098
1.1655991
1.1660411
1.1652455
1.1661818
1.1645899
1.1444934
1.1694371
1.1709604
1.1733556
1.1712216
1.1717351
1.1708962
1.1710646
1.1706699
1.1706645
1.1704475
1.1703815
1.1702398
1.1701493
1.1700332
1.1699284
1.1698164
1.1697046
1.1695892
1.1694698
1.1693459
1.1692166
1.1690815
1.16894
1.1687917
1.1686363
1.1684737
1.1683036
1.1681263
1.167942
1.1677509
1.1675535
1.1673504
1.1671425
1.1669305
1.1667155
1.1664986
1.1662809
1.1660639
1.165849
1.1656377
1.1654315
1.1652321
1.165041
1.16486
1.1646905
1.1645341
1.1643922
1.1642661
1.1641569
1.1640657
1.1639932
1.1639402
1.163907
1.1638939
1.1639006
1.1639269
1.1639721
1.1640353
1.1641153
1.1642103
1.1643185