/*--------------------------------*- C++ -*----------------------------------*\
| =========                 |                                                 |
| \\      /  F ield         | OpenFOAM: The Open Source CFD Toolbox           |
|  \\    /   O peration     | Version:  2512                                  |
|   \\  /    A nd           | Website:  www.openfoam.com                      |
|    \\/     M anipulation  |                                                 |
\*---------------------------------------------------------------------------*/
FoamFile
{
    version     2.0;
    format      ascii;
    arch        "LSB;label=32;scalar=64";
    class       volScalarField;
    location    "0.145";
    object      T;
}
// * * * * * * * * * * * * * * * * * * * * * * * * * * * * * * * * * * * * * //

dimensions      [0 0 0 1 0 0 0];

internalField   nonuniform List<scalar> 
16000
(
292.62747
284.83404
289.22424
286.94061
288.60675
287.85288
288.51933
288.31921
288.62204
288.63326
288.79823
288.88516
289.00978
289.12029
289.23893
289.35777
289.47992
289.60472
289.7326
289.86365
289.998
290.13574
290.2769
290.42153
290.56961
290.72112
290.87597
291.03408
291.1953
291.35949
291.52643
291.69591
291.86765
292.04138
292.21677
292.39348
292.57114
292.74936
292.92773
293.10585
293.28328
293.4596
293.63439
293.80724
293.97774
294.14553
294.31024
294.47154
294.62916
294.78281
294.9323
295.07743
295.21807
295.35411
295.48552
295.61225
295.73433
295.85181
295.96477
296.07335
296.17773
296.27813
296.37481
296.46809
296.55833
296.64591
296.7312
296.8146
296.89649
296.97744
297.05815
297.1394
297.2217
297.30515
297.38993
297.47598
297.57475
297.64084
297.80142
297.82378
292.31424
284.41635
288.96962
286.55647
288.31577
287.4979
288.22251
287.9967
288.32262
288.33574
288.50764
288.60402
288.73442
288.85404
288.98025
289.10779
289.23853
289.37231
289.50938
289.64986
289.79385
289.94144
290.09264
290.24745
290.40585
290.56776
290.73308
290.90167
291.07335
291.24791
291.42512
291.60469
291.78631
291.96965
292.15433
292.33995
292.52611
292.71237
292.89829
293.08341
293.26729
293.44948
293.62954
293.80706
293.98164
294.1529
294.32052
294.48419
294.64364
294.79866
294.94907
295.09473
295.23554
295.37147
295.50249
295.62863
295.74995
295.86654
295.97852
296.08606
296.18936
296.28867
296.38427
296.47649
296.56569
296.65229
296.73666
296.8192
296.90032
296.98054
297.0606
297.14131
297.22326
297.30655
297.39131
297.4792
297.57088
297.65947
297.7811
297.84934
291.9862
284.03594
288.67622
286.23315
288.02004
287.20513
287.93076
287.72332
288.04636
288.07648
288.25056
288.3592
288.49659
288.62624
288.76166
288.89911
289.03996
289.18416
289.33192
289.48335
289.63853
289.79749
289.96023
290.12671
290.29686
290.47056
290.64766
290.82797
291.01125
291.19725
291.38565
291.57611
291.76827
291.96171
292.156
292.3507
292.54533
292.7394
292.93243
293.12393
293.31343
293.50046
293.68459
293.86539
294.04249
294.21554
294.38423
294.54833
294.7076
294.86188
295.01106
295.15505
295.29384
295.42744
295.55589
295.67927
295.79771
295.91135
296.02036
296.12492
296.2253
296.32176
296.4146
296.50417
296.59085
296.67506
296.75719
296.83763
296.91681
296.99522
297.07358
297.15274
297.23331
297.31544
297.39929
297.48608
297.57628
297.66925
297.77996
297.8585
291.69317
283.68731
288.42764
285.94574
287.77175
286.94042
287.67867
287.48171
287.80786
287.85305
288.03128
288.15265
288.29813
288.43871
288.58433
288.73267
288.88459
289.04016
289.19951
289.36274
289.52989
289.70096
289.87592
290.05468
290.23712
290.42308
290.61234
290.80466
290.99974
291.19725
291.3968
291.59799
291.80037
292.00346
292.20677
292.40978
292.61197
292.81279
293.01173
293.20827
293.40193
293.59223
293.77874
293.96107
294.13888
294.31186
294.47976
294.64239
294.79959
294.95129
295.09742
295.23799
295.37305
295.50267
295.62698
295.74613
295.86028
295.96963
296.0744
296.17482
296.27117
296.36375
296.45287
296.5389
296.62223
296.70328
296.78245
296.86015
296.93677
297.01281
297.08897
297.16609
297.24486
297.32549
297.4081
297.49344
297.58246
297.67768
297.7776
297.87084
291.42354
283.37337
288.19418
285.68634
287.56874
286.71827
287.46022
287.28263
287.60777
287.67228
287.85473
287.99052
288.14559
288.29831
288.45556
288.61602
288.78025
288.94836
289.12045
289.29661
289.47683
289.66108
289.84928
290.04129
290.23694
290.436
290.63818
290.84315
291.05054
291.25992
291.47084
291.68279
291.89523
292.10763
292.31939
292.52995
292.73872
292.94513
293.14862
293.34866
293.54477
293.73649
293.92343
294.10523
294.2816
294.45231
294.61718
294.77611
294.92902
295.07592
295.21685
295.35189
295.48118
295.60487
295.72317
295.83627
295.94443
296.04787
296.14688
296.24171
296.33267
296.42009
296.50431
296.58568
296.66461
296.74153
296.81683
296.89092
296.96418
297.03711
297.11035
297.18476
297.26107
297.33957
297.42022
297.50348
297.59127
297.68573
297.78093
297.87824
291.18389
283.10426
287.99606
285.47196
287.3617
286.5434
287.29131
287.13096
287.45594
287.53993
287.72764
287.87854
288.04447
288.21009
288.37996
288.55345
288.73096
288.9126
289.09847
289.28858
289.48291
289.68136
289.88379
290.08999
290.29969
290.51258
290.72827
290.94634
291.1663
291.38764
291.60977
291.83211
292.05403
292.27489
292.49404
292.71085
292.92469
293.13496
293.34109
293.54257
293.73893
293.92977
294.11473
294.29355
294.46602
294.632
294.79141
294.94424
295.09055
295.23041
295.36399
295.49147
295.61305
295.72899
295.83956
295.94503
296.04569
296.14184
296.23378
296.32181
296.40627
296.48749
296.56582
296.64164
296.71533
296.78732
296.85802
296.92781
296.99709
297.06629
297.13606
297.2072
297.28054
297.35641
297.43461
297.51542
297.6014
297.69403
297.78478
297.88578
290.97614
282.87976
287.83173
285.30509
287.20848
286.4203
287.15882
287.03241
287.34865
287.45936
287.65332
287.81963
287.99758
288.17694
288.36063
288.54843
288.74059
288.93722
289.13834
289.3439
289.55379
289.76783
289.98578
290.20733
290.4321
290.65965
290.88949
291.12105
291.35375
291.58692
291.81989
292.05195
292.28238
292.51047
292.7355
292.95679
293.17369
293.3856
293.59198
293.79234
293.98629
294.1735
294.35371
294.52676
294.69255
294.85107
295.00237
295.14656
295.28381
295.41433
295.53837
295.65622
295.76818
295.87458
295.97575
296.07204
296.16378
296.25131
296.33497
296.41508
296.49199
296.56604
296.63759
296.70701
296.77468
296.84102
296.90643
296.97128
297.03596
297.10087
297.16661
297.23396
297.3038
297.37651
297.45172
297.52969
297.61332
297.70318
297.79012
297.89239
290.80027
282.70005
287.70108
285.17476
287.0835
286.32198
287.06664
286.95472
287.29828
287.42884
287.6307
287.81352
288.00566
288.20066
288.40031
288.60452
288.81345
289.02712
289.24546
289.46833
289.69552
289.92674
290.16162
290.39971
290.64049
290.8834
291.12779
291.37294
291.61813
291.86257
292.10546
292.34598
292.58334
292.81674
293.04545
293.26875
293.48602
293.69669
293.90028
294.09639
294.28474
294.46511
294.63738
294.80154
294.95764
295.1058
295.24623
295.37918
295.50493
295.62384
295.73625
295.84254
295.94311
296.03836
296.12867
296.21444
296.29604
296.37384
296.4482
296.51945
296.58796
296.65406
296.7181
296.78045
296.84148
296.90158
296.96114
297.02052
297.08009
297.14024
297.20149
297.2646
297.33048
297.39955
297.47134
297.54611
297.62688
297.71319
297.79617
297.8991
290.64864
282.56139
287.60561
285.08274
287.0178
286.31641
287.04374
286.97523
287.28903
287.4479
287.66193
287.86397
288.07361
288.28704
288.50536
288.72857
288.95673
289.18977
289.42752
289.66974
289.91606
290.16605
290.41919
290.67487
290.9324
291.19104
291.44995
291.7083
291.96516
292.21964
292.4708
292.71776
292.95965
293.19564
293.425
293.64705
293.86122
294.06704
294.26415
294.45231
294.63136
294.80128
294.96212
295.11404
295.25727
295.39212
295.51892
295.63807
295.75001
295.85519
295.95405
296.04707
296.1347
296.2174
296.29561
296.36974
296.4402
296.50738
296.57163
296.6333
296.69273
296.75027
296.80625
296.86101
296.9149
296.9683
297.02157
297.07507
297.12913
297.18411
297.24049
297.29899
297.36051
297.4255
297.49347
297.56475
297.64213
297.72411
297.80312
297.90597
290.52067
282.46557
287.55011
285.05178
287.00173
286.30434
287.02946
287.01186
287.34059
287.52767
287.75728
287.98051
288.21046
288.44492
288.6846
288.92943
289.17936
289.43418
289.69358
289.95714
290.22433
290.49453
290.767
291.04094
291.31545
291.58957
291.86231
292.13262
292.39946
292.66178
292.91859
293.16892
293.41189
293.64671
293.8727
294.0893
294.29606
294.49269
294.679
294.85496
295.02063
295.1762
295.32195
295.45822
295.58544
295.70409
295.81467
295.91771
296.01376
296.10337
296.18707
296.26539
296.33885
296.40792
296.47308
296.53476
296.59337
296.6493
296.70288
296.75448
296.8044
296.85298
296.90051
296.94734
296.99377
297.04016
297.08685
297.13416
297.18242
297.23195
297.28316
297.33675
297.39358
297.4541
297.51793
297.58552
297.65902
297.73597
297.8109
297.91324
290.41938
282.42011
287.53791
285.11259
287.03141
286.41512
287.09152
287.14906
287.45718
287.67485
287.9242
288.17135
288.42492
288.68353
288.94761
289.21698
289.49141
289.77052
290.0538
290.3406
290.63016
290.92161
291.21396
291.50616
291.79707
292.08553
292.37032
292.65024
292.92412
293.19083
293.44933
293.69868
293.93805
294.16677
294.38431
294.59031
294.78455
294.96697
295.13767
295.29686
295.44488
295.58215
295.70919
295.82656
295.93486
296.03475
296.12685
296.21183
296.2903
296.36291
296.43022
296.49283
296.55124
296.60598
296.6575
296.70623
296.75257
296.7969
296.83953
296.8808
296.921
296.96042
296.99935
297.03807
297.07689
297.11611
297.15604
297.197
297.23927
297.28316
297.32904
297.37751
297.42939
297.48511
297.54457
297.60831
297.67753
297.74884
297.81967
297.921
290.35121
282.43472
287.57452
285.20594
287.08584
286.55267
287.23207
287.32377
287.64882
287.89849
288.17225
288.44666
288.72749
289.01371
289.30551
289.60252
289.90428
290.21015
290.51934
290.83092
291.14381
291.45684
291.76872
292.07811
292.38362
292.68386
292.97745
293.26304
293.53941
293.80543
294.0601
294.30261
294.53233
294.74882
294.95181
295.14124
295.31724
295.48006
295.63013
295.76795
295.89415
296.00942
296.11449
296.21011
296.29707
296.37612
296.44802
296.5135
296.57323
296.6279
296.67809
296.7244
296.76735
296.80742
296.84507
296.8807
296.91469
296.94736
296.97902
297.00996
297.04045
297.07073
297.10107
297.13171
297.16291
297.19496
297.22812
297.26268
297.29891
297.33708
297.37752
297.42078
297.46751
297.51821
297.57312
297.63292
297.69748
297.76268
297.82953
297.92947
290.32224
282.51975
287.67212
285.38954
287.21219
286.77891
287.43354
287.5879
287.92474
288.20914
288.51219
288.81784
289.13002
289.44774
289.77088
290.09878
290.43065
290.7655
291.10215
291.43931
291.77551
292.10922
292.43883
292.76269
293.07918
293.38672
293.68381
293.9691
294.2414
294.49972
294.74331
294.97161
295.18435
295.38145
295.56306
295.72953
295.88137
296.01923
296.14386
296.2561
296.35683
296.44698
296.52746
296.59918
296.66303
296.71987
296.77049
296.81567
296.8561
296.89244
296.9253
296.95522
296.9827
297.0082
297.03212
297.05484
297.07667
297.09792
297.11885
297.1397
297.1607
297.18206
297.20401
297.22674
297.25049
297.2755
297.302
297.33024
297.36048
297.39295
297.42797
297.46599
297.5075
297.553
297.60328
297.65907
297.71866
297.77733
297.84042
297.93878
290.33001
282.68023
287.8293
285.63113
287.42924
287.07995
287.72336
287.93533
288.29577
288.6186
288.95663
289.29841
289.64662
290.00013
290.35837
290.72028
291.08461
291.44989
291.81448
292.17661
292.5344
292.88592
293.22923
293.56242
293.88371
294.19145
294.4842
294.76077
295.02022
295.26193
295.48556
295.69106
295.87863
296.04872
296.20198
296.33922
296.46139
296.5695
296.66463
296.74789
296.82038
296.88319
296.93737
296.98391
297.02376
297.05779
297.08681
297.11157
297.13275
297.15096
297.16677
297.18068
297.19312
297.20451
297.21519
297.22548
297.23566
297.24597
297.25662
297.26783
297.27976
297.2926
297.30651
297.32167
297.33827
297.35649
297.37656
297.39868
297.42307
297.44997
297.47968
297.51252
297.54881
297.5891
297.63468
297.68639
297.74084
297.79285
297.85244
297.94848
290.3812
282.93401
288.04941
285.96578
287.73064
287.47491
288.10937
288.38512
288.77642
289.14265
289.52181
289.90522
290.29449
290.6881
291.08486
291.48314
291.88108
292.27665
292.66764
293.05176
293.42667
293.7901
294.13985
294.47392
294.79055
295.08829
295.36602
295.623
295.85884
296.07353
296.26738
296.44097
296.59515
296.73095
296.84953
296.95216
297.04017
297.1149
297.17766
297.22976
297.27242
297.30682
297.33405
297.35512
297.37095
297.3824
297.39023
297.39512
297.3977
297.39851
297.39804
297.39672
297.39493
297.393
297.39122
297.38985
297.38909
297.38915
297.3902
297.39237
297.39582
297.40066
297.40704
297.41508
297.42492
297.43675
297.45071
297.46699
297.48579
297.50733
297.53189
297.55969
297.59089
297.62604
297.6669
297.71434
297.76364
297.8093
297.86566
297.95799
290.48008
283.30179
288.31781
286.39698
288.10925
287.9737
288.60851
288.95167
289.38435
289.80056
290.22782
290.65879
291.09401
291.53131
291.96874
292.40393
292.8343
293.25714
293.66961
294.06894
294.45243
294.81762
295.16234
295.48482
295.78371
296.05815
296.30772
296.53248
296.73287
296.90971
297.0641
297.19734
297.31093
297.40644
297.48549
297.54971
297.6007
297.63999
297.66905
297.68922
297.70179
297.7079
297.70862
297.7049
297.69758
297.68744
297.67516
297.66132
297.64646
297.63104
297.61545
297.60003
297.5851
297.57091
297.55768
297.54559
297.53481
297.52548
297.51771
297.5116
297.50725
297.50475
297.50418
297.50565
297.50925
297.51513
297.5234
297.53421
297.54774
297.56421
297.58385
297.60681
297.63312
297.6634
297.69953
297.74232
297.78644
297.82655
297.87974
297.9674
290.63035
283.79401
288.65298
286.93948
288.59925
288.59472
289.24152
289.65894
290.14384
290.61758
291.09968
291.58343
292.06805
292.55058
293.02808
293.49729
293.95479
294.39713
294.82099
295.22328
295.60133
295.95295
296.27652
296.57102
296.83607
297.07182
297.27896
297.4586
297.61219
297.74146
297.84827
297.9346
298.00246
298.05383
298.09064
298.1147
298.12774
298.13135
298.12696
298.11592
298.09941
298.0785
298.05413
298.02714
297.99828
297.96818
297.9374
297.90643
297.87569
297.84552
297.81625
297.78812
297.76135
297.73613
297.71261
297.6909
297.67112
297.65335
297.63766
297.6241
297.61273
297.6036
297.59675
297.59226
297.59018
297.59062
297.59367
297.59944
297.60809
297.61981
297.63482
297.65317
297.67489
297.70066
297.7322
297.76983
297.80845
297.84415
297.89453
297.97616
290.83665
284.36935
289.08522
287.61656
289.22231
289.36559
290.0389
290.53735
291.08507
291.62327
292.16553
292.70508
293.23959
293.76492
294.27696
294.77141
295.24407
295.69109
296.10908
296.49534
296.84791
297.16566
297.44821
297.69596
297.90993
298.09166
298.24312
298.36652
298.4643
298.53893
298.5929
298.62863
298.64842
298.65445
298.64873
298.6331
298.60922
298.57859
298.54254
298.50227
298.45879
298.41304
298.36579
298.31773
298.26946
298.22147
298.17419
298.12799
298.08317
298.03999
297.99864
297.95931
297.92213
297.88721
297.85464
297.82449
297.79679
297.77159
297.74891
297.72878
297.7112
297.69618
297.68376
297.67394
297.66679
297.66234
297.66067
297.66186
297.66605
297.67341
297.68409
297.6981
297.71555
297.73722
297.76444
297.79664
297.82925
297.86122
297.90973
297.98434
291.11595
285.09728
289.69517
288.46604
290.01611
290.32037
291.0366
291.62231
292.24182
292.84984
293.45468
294.04879
294.62782
295.18623
295.71872
296.22034
296.68681
297.11474
297.50179
297.84668
298.14918
298.41003
298.63076
298.81355
298.96105
299.07621
299.16213
299.22195
299.25876
299.27551
299.27499
299.25975
299.23214
299.19428
299.14806
299.09517
299.03709
298.9751
298.91034
298.84378
298.77626
298.70849
298.64109
298.57456
298.50935
298.4458
298.38423
298.32486
298.26789
298.21348
298.16174
298.11277
298.06664
298.02337
297.98302
297.94557
297.91105
297.87943
297.85071
297.82487
297.80189
297.78175
297.76444
297.74996
297.73832
297.72955
297.72368
297.72078
297.72096
297.72436
297.73105
297.74103
297.75452
297.77244
297.79569
297.82265
297.84911
297.87717
297.92444
297.99308
291.50148
286.00311
290.46152
289.52613
291.02136
291.49599
292.27471
292.95434
293.65219
294.33128
294.9944
295.63264
296.23971
296.80909
297.33533
297.81416
298.24274
298.61973
298.94517
299.22035
299.4476
299.62999
299.77115
299.87498
299.94551
299.98672
300.00244
299.99628
299.97156
299.93132
299.87827
299.81483
299.74314
299.66507
299.58223
299.49602
299.40765
299.31814
299.22837
299.13906
299.05085
298.96424
298.87965
298.79743
298.71787
298.64118
298.56753
298.49706
298.42987
298.36601
298.30553
298.24845
298.19477
298.14448
298.09754
298.05394
298.01363
297.97657
297.9427
297.91199
297.88439
297.85984
297.83833
297.81981
297.80428
297.79172
297.78217
297.77566
297.77227
297.77211
297.77518
297.78147
297.79134
297.80576
297.82522
297.84741
297.86849
297.89269
297.93815
298.00244
292.03535
287.15289
291.39675
290.8341
292.28928
292.94252
293.80401
294.58164
295.35609
296.09568
296.79791
297.45307
298.05446
298.59659
299.07612
299.49167
299.84384
300.13482
300.36811
300.54811
300.67979
300.76838
300.8191
300.83703
300.82693
300.79319
300.73978
300.67025
300.58774
300.49499
300.39436
300.28791
300.17739
300.06428
299.94985
299.83515
299.72107
299.60835
299.4976
299.38931
299.28389
299.18165
299.08285
298.98769
298.8963
298.80878
298.72521
298.64562
298.57001
298.49838
298.4307
298.36693
298.30702
298.25091
298.19852
298.1498
298.10467
298.06305
298.02488
297.99007
297.95856
297.93028
297.90518
297.88321
297.86433
297.84852
297.83577
297.8261
297.81958
297.81625
297.81607
297.81906
297.82569
297.83685
297.85258
297.8703
297.88701
297.90842
297.95157
298.00978
292.75581
288.60561
292.61194
292.45816
293.89597
294.72939
295.68255
296.5479
297.37693
298.14323
298.84166
299.46442
300.00788
300.4708
300.85475
301.16337
301.40197
301.57687
301.69498
301.76331
301.78871
301.77763
301.736
301.66916
301.58182
301.47811
301.36161
301.23538
301.10202
300.96375
300.82242
300.67957
300.53649
300.39427
300.25376
300.11569
299.98063
299.84904
299.7213
299.59768
299.47839
299.36358
299.25337
299.14781
299.04693
298.95072
298.85918
298.77224
298.68986
298.61197
298.53847
298.46928
298.40431
298.34347
298.28664
298.23372
298.18463
298.13926
298.09751
298.05929
298.02452
297.99311
297.96499
297.9401
297.91837
297.89977
297.88426
297.87187
297.86262
297.85648
297.85341
297.85349
297.85724
297.86537
297.87746
297.89096
297.9041
297.92355
297.9638
298.01457
293.66837
290.47559
294.19003
294.48788
295.92606
296.92384
297.9473
298.85917
299.68834
300.41701
301.0434
301.5663
301.9892
302.31806
302.561
302.72724
302.82644
302.86812
302.86128
302.81418
302.73416
302.62769
302.50035
302.35688
302.20131
302.03702
301.8668
301.693
301.51753
301.34196
301.16757
300.9954
300.82629
300.66089
300.49973
300.34322
300.19165
300.04527
299.90421
299.76859
299.63846
299.51383
299.39468
299.28098
299.17266
299.06964
298.97182
298.8791
298.79138
298.70851
298.63039
298.55689
298.48788
298.42322
298.36281
298.30651
298.25419
298.20575
298.16107
298.12005
298.08257
298.04855
298.0179
297.99054
297.9664
297.94542
297.92757
297.91283
297.90119
297.8926
297.88699
297.88453
297.88572
297.89101
297.89963
297.90927
297.91935
297.93696
297.97365
298.01691
294.89314
292.88264
296.24284
296.99338
298.41352
299.5484
300.57273
301.44583
302.18562
302.78775
303.26077
303.61408
303.86042
304.01338
304.08674
304.09355
304.04577
303.95396
303.82726
303.67345
303.49905
303.30946
303.10914
302.90173
302.69018
302.47688
302.26376
302.05235
301.84387
301.63928
301.43933
301.24461
301.05553
300.87244
300.69554
300.525
300.36089
300.20326
300.05209
299.90734
299.76895
299.63682
299.51085
299.39092
299.27688
299.16861
299.06594
298.96874
298.87684
298.79009
298.70834
298.63143
298.55921
298.49152
298.42824
298.3692
298.31428
298.26335
298.21627
298.17293
298.13322
298.09703
298.06426
298.03482
298.00863
297.98562
297.96576
297.949
297.93529
297.92456
297.91677
297.91209
297.91097
297.91357
297.91892
297.9251
297.93255
297.9484
297.98159
298.01801
296.4639
295.92871
298.794
299.99167
301.46539
302.52135
303.43025
304.14201
304.68497
305.0703
305.31976
305.45355
305.49193
305.45315
305.35326
305.20588
305.02236
304.81199
304.58231
304.33935
304.08792
303.83185
303.57413
303.31713
303.06267
302.81218
302.56676
302.32722
302.09419
301.86811
301.6493
301.43796
301.23421
301.03811
300.84966
300.6688
300.49546
300.32954
300.17089
300.01938
299.87486
299.73714
299.60605
299.48142
299.36306
299.25079
299.14442
299.04376
298.94864
298.85886
298.77427
298.69467
298.6199
298.54981
298.48421
298.42297
298.36594
298.31297
298.26392
298.21867
298.17709
298.13908
298.10452
298.07331
298.04538
298.02064
297.99904
297.98052
297.96502
297.95243
297.94276
297.93618
297.93299
297.93313
297.93555
297.93883
297.94407
297.9577
297.98605
298.01543
298.43072
299.62369
302.25517
303.51205
304.74025
305.61875
306.27864
306.71165
306.96691
307.07393
307.06495
306.96603
306.79927
306.58235
306.32933
306.05122
305.75652
305.4518
305.14209
304.83122
304.52207
304.21684
303.91715
303.62421
303.3389
303.06182
302.79341
302.53392
302.28352
302.04225
301.81011
301.58704
301.37291
301.16759
300.97092
300.7827
300.60275
300.43086
300.2668
300.11037
299.96134
299.81949
299.6846
299.55645
299.43483
299.31951
299.21029
299.10695
299.00931
298.91715
298.83029
298.74854
298.67173
298.59966
298.53218
298.46912
298.41033
298.35566
298.30495
298.25809
298.21493
298.17537
298.13927
298.10654
298.07709
298.05083
298.02771
298.00764
297.99054
297.97634
297.96504
297.95679
297.95176
297.94973
297.94977
297.95095
297.95465
297.96599
297.98901
298.01185
301.11605
304.02444
305.99006
307.14502
308.05155
308.56291
308.83696
308.90846
308.83594
308.65742
308.40446
308.10018
307.762
307.40266
307.03155
306.6555
306.27946
305.90703
305.54076
305.18247
304.83343
304.49448
304.16618
303.84885
303.54264
303.24759
302.96364
302.69066
302.42849
302.1769
301.93567
301.70454
301.48324
301.27151
301.06908
300.87566
300.69098
300.51477
300.34676
300.18668
300.03428
299.8893
299.75148
299.62059
299.49639
299.37863
299.26711
299.16158
299.06185
298.9677
298.87893
298.79534
298.71675
298.64298
298.57385
298.50919
298.44885
298.39266
298.34049
298.29218
298.24761
298.20665
298.16918
298.13509
298.10428
298.07666
298.05215
298.03068
298.01215
297.9965
297.98375
297.97398
297.96724
297.96327
297.96139
297.96117
297.96389
297.97303
297.99049
298.00727
304.85365
308.68818
309.91832
310.59926
310.94689
310.97881
310.82664
310.54492
310.18248
309.76976
309.32838
308.87282
308.41298
307.95551
307.50491
307.06413
306.63511
306.21905
305.81665
305.42827
305.05401
304.6938
304.34747
304.01475
303.69533
303.38887
303.095
302.81335
302.54353
302.28517
302.0379
301.80135
301.57515
301.35897
301.15246
300.95529
300.76715
300.58771
300.41668
300.25377
300.09869
299.95118
299.81095
299.67776
299.55135
299.43149
299.31793
299.21045
299.10883
299.01286
298.92232
298.83702
298.75677
298.68139
298.61069
298.5445
298.48267
298.42504
298.37145
298.32176
298.27585
298.23357
298.1948
298.15944
298.12736
298.09848
298.07271
298.04995
298.03013
298.01318
297.99911
297.98793
297.97962
297.97393
297.97046
297.9691
297.97079
297.9775
297.98991
298.00242
310.42444
312.8454
313.28056
313.24147
313.01804
312.60719
312.11067
311.56667
311.00334
310.43662
309.87634
309.32836
308.79607
308.28139
307.78522
307.30788
306.8493
306.40918
305.98704
305.58235
305.19452
304.82294
304.46701
304.12612
303.7997
303.48719
303.18804
302.90174
302.6278
302.36576
302.11515
301.87555
301.64656
301.42778
301.21884
301.01939
300.82907
300.64757
300.47456
300.30973
300.15281
300.00349
299.86152
299.72662
299.59855
299.47705
299.36189
299.25284
299.14967
299.05218
298.96014
298.87338
298.79168
298.71488
298.64278
298.57522
298.51204
298.45308
298.39818
298.34722
298.30004
298.25653
298.21655
298.17999
298.14673
298.11669
298.08975
298.06582
298.04483
298.02672
298.01147
297.99905
297.98938
297.98228
297.97758
297.97533
297.97607
297.98056
297.98886
297.99841
314.03148
315.02432
315.17572
314.67197
314.04996
313.37489
312.68732
312.00777
311.34586
310.7068
310.0927
309.50428
308.94135
308.40327
307.88915
307.39797
306.9287
306.4803
306.05175
305.64209
305.25042
304.87588
304.51766
304.17502
303.84724
303.53369
303.23373
302.9468
302.67236
302.40988
302.15891
301.91897
301.68966
301.47055
301.26127
301.06144
300.87072
300.68878
300.51529
300.34994
300.19245
300.04253
299.8999
299.76431
299.6355
299.51322
299.39725
299.28734
299.18329
299.08487
298.99189
298.90414
298.82145
298.74361
298.67046
298.60183
298.53755
298.47749
298.42147
298.36938
298.32107
298.27641
298.23528
298.19756
298.16316
298.13196
298.10388
298.07881
298.05669
298.03747
298.02109
298.00751
297.99664
297.98837
297.98261
297.97945
297.97917
297.9821
297.98813
297.99611
310.59521
308.86068
305.60029
302.78544
301.79328
301.80987
301.4701
301.25327
301.07814
300.92715
300.79677
300.66995
300.5568
300.45298
300.35228
300.25192
300.15301
300.05533
299.95857
299.86257
299.76721
299.67244
299.57822
299.48457
299.39149
299.29903
299.20723
299.11614
299.02584
298.9364
298.84789
298.76039
298.674
298.5888
298.50488
298.42236
298.34131
298.26186
298.18411
298.10818
298.03417
297.96221
297.89243
297.82494
297.75988
297.69736
297.63754
297.58053
297.52647
297.47549
297.42771
297.38325
297.34223
297.30475
297.27093
297.24086
297.21462
297.19228
297.17387
297.15944
297.14908
297.14283
297.14073
297.14284
297.14929
297.16018
297.17574
297.19578
297.22093
297.24987
297.28582
297.32308
297.37444
297.41734
297.49106
297.52641
297.63737
297.65763
297.80931
297.83671
306.77699
304.62429
300.574
299.35312
299.33914
299.45434
299.61422
299.6666
299.70541
299.73904
299.76196
299.76165
299.74551
299.71645
299.67992
299.63739
299.58949
299.53668
299.47963
299.41893
299.35509
299.28853
299.21966
299.14883
299.07636
299.00255
298.92768
298.852
298.77577
298.69919
298.6225
298.5459
298.46957
298.39371
298.3185
298.24411
298.17071
298.09847
298.02756
297.95812
297.89032
297.82432
297.76028
297.69833
297.63865
297.58138
297.52667
297.47468
297.42554
297.37939
297.33637
297.2966
297.2602
297.22728
297.19795
297.1723
297.1504
297.13231
297.11808
297.10773
297.10133
297.09893
297.10055
297.10624
297.11613
297.13032
297.14898
297.172
297.19985
297.23148
297.26962
297.30949
297.36225
297.40776
297.48171
297.52033
297.63067
297.65301
297.80745
297.83071
307.3063
303.18267
300.10148
298.93151
298.95889
299.07395
299.19857
299.22074
299.25441
299.25382
299.25482
299.24426
299.23253
299.21468
299.1926
299.16537
299.13377
299.09796
299.05828
299.01503
298.96848
298.9189
298.86657
298.81177
298.75476
298.69581
298.63517
298.57309
298.50982
298.44559
298.38065
298.3152
298.24947
298.18368
298.11802
298.05272
297.98796
297.92395
297.86088
297.79894
297.73832
297.6792
297.62177
297.56619
297.51266
297.46134
297.41241
297.36602
297.32234
297.28152
297.24369
297.209
297.17757
297.14951
297.12492
297.10391
297.08654
297.07288
297.06293
297.05674
297.05438
297.05586
297.06122
297.0705
297.0838
297.10124
297.12297
297.14887
297.1794
297.21359
297.25396
297.2962
297.35058
297.39816
297.47305
297.51392
297.62486
297.64841
297.8053
297.82582
306.22137
301.05456
299.08388
298.19836
298.44759
298.50595
298.63136
298.64162
298.68996
298.70311
298.72479
298.72909
298.73088
298.72443
298.71401
298.6988
298.67966
298.65658
298.62991
298.59991
298.56679
298.53079
298.49212
298.45097
298.40756
298.36207
298.31471
298.26568
298.21516
298.16337
298.11051
298.05677
298.00236
297.9475
297.89239
297.83723
297.78223
297.72761
297.67357
297.62032
297.56805
297.51697
297.46729
297.41919
297.37288
297.32855
297.28639
297.24656
297.20925
297.17462
297.14281
297.11397
297.08823
297.06571
297.04652
297.03075
297.01847
297.00973
297.00455
297.00297
297.00503
297.01076
297.02018
297.03333
297.05032
297.07123
297.09623
297.1252
297.15855
297.19542
297.23815
297.28281
297.33894
297.38853
297.4645
297.50757
297.61904
297.64388
297.80312
297.82112
305.19418
299.94492
298.5146
297.78632
298.14213
298.12742
298.25969
298.24183
298.2895
298.28642
298.30128
298.29778
298.29729
298.29033
298.28186
298.27003
298.25576
298.23885
298.2195
298.19779
298.17379
298.14759
298.11927
298.08891
298.0566
298.02244
297.98655
297.94906
297.91008
297.86977
297.82828
297.78577
297.7424
297.69836
297.65382
297.60898
297.56403
297.51918
297.47461
297.43055
297.38719
297.34475
297.30343
297.26343
297.22498
297.18826
297.15347
297.12081
297.09045
297.06257
297.03731
297.01483
296.99526
296.97873
296.96535
296.9552
296.94837
296.94488
296.94477
296.94804
296.95477
296.96496
296.97862
296.9958
297.01659
297.04109
297.06943
297.10153
297.13776
297.17733
297.22248
297.26951
297.3275
297.37896
297.45623
297.50118
297.61354
297.63943
297.80081
297.81688
304.68012
298.86548
297.88502
297.24043
297.69104
297.61204
297.77221
297.74101
297.80408
297.80176
297.82682
297.82896
297.83635
297.83626
297.83534
297.83116
297.8249
297.81628
297.80554
297.79274
297.77795
297.76125
297.74269
297.72234
297.70026
297.67652
297.65121
297.6244
297.59618
297.56668
297.53598
297.50423
297.47155
297.43809
297.40401
297.36947
297.33465
297.29972
297.26488
297.23032
297.19625
297.16286
297.13036
297.09896
297.06887
297.04029
297.01343
296.98847
296.9656
296.94498
296.92679
296.91117
296.89825
296.88817
296.88102
296.87691
296.8759
296.87802
296.88328
296.89171
296.90336
296.91823
296.93634
296.95773
296.98248
297.01069
297.04249
297.07781
297.11699
297.15931
297.20692
297.25634
297.31624
297.36957
297.44815
297.49493
297.60822
297.63512
297.79857
297.81289
304.2043
297.70952
297.31635
296.70852
297.23291
297.10607
297.29885
297.25635
297.33576
297.33325
297.36682
297.37315
297.38745
297.3936
297.39959
297.40233
297.40321
297.40199
297.3989
297.39401
297.3874
297.37914
297.36928
297.35788
297.34498
297.33063
297.31489
297.29781
297.27947
297.25993
297.23929
297.21763
297.19506
297.1717
297.14768
297.12314
297.09824
297.07312
297.04796
297.02294
296.99825
296.97408
296.95063
296.9281
296.90669
296.8866
296.86802
296.85115
296.83615
296.82321
296.81247
296.80409
296.7982
296.79493
296.79438
296.79662
296.80174
296.80975
296.82065
296.83447