/*--------------------------------*- C++ -*----------------------------------*\
| =========                 |                                                 |
| \\      /  F ield         | OpenFOAM: The Open Source CFD Toolbox           |
|  \\    /   O peration     | Version:  2512                                  |
|   \\  /    A nd           | Website:  www.openfoam.com                      |
|    \\/     M anipulation  |                                                 |
\*---------------------------------------------------------------------------*/
FoamFile
{
    version     2.0;
    format      ascii;
    arch        "LSB;label=32;scalar=64";
    class       volVectorField;
    location    "0.145";
    object      U;
}
// * * * * * * * * * * * * * * * * * * * * * * * * * * * * * * * * * * * * * //

dimensions      [0 1 -1 0 0 0 0];

internalField   nonuniform List<vector> 
16000
(
(214.81798 -3.119298e-17 -8.3411714)
(251.96679 0 5.350928)
(238.35609 0 -7.5424789)
(246.07487 4.9552046e-17 3.7650207)
(241.47568 -4.9003729e-17 -5.9322995)
(243.73506 0 1.7369835)
(241.98097 0 -4.3156635)
(242.52147 8.3844533e-17 -0.040173211)
(241.71166 -7.9686211e-17 -3.1585149)
(241.61395 0 -1.2765458)
(241.12036 7.2005753e-17 -2.570624)
(240.79119 -2.0514365e-16 -1.9930682)
(240.36338 1.2985024e-16 -2.4319901)
(239.94875 -1.2352e-16 -2.3701118)
(239.50445 1.1719911e-16 -2.5320659)
(239.04496 -3.4766945e-18 -2.6047659)
(238.56566 -3.302771e-18 -2.7090693)
(238.0676 -9.7458868e-17 -2.802637)
(237.55033 1.9094439e-16 -2.89801)
(237.01382 -9.0596211e-17 -2.991208)
(236.45796 1.7232783e-16 -3.0826192)
(235.88275 -1.6335227e-16 -3.1715453)
(235.28823 0 -3.2574854)
(234.67455 1.5205643e-16 -3.3398537)
(234.04192 -4.1146135e-18 -3.4180544)
(233.39067 -2.6538493e-16 -3.4914582)
(232.72123 1.2578262e-16 -3.5594277)
(232.03416 0 -3.6213108)
(231.33013 0 -3.6764572)
(230.60996 2.1844335e-16 -3.7242233)
(229.87458 -2.0352854e-16 -3.7639853)
(229.12509 0 -3.7951481)
(228.36271 0 -3.8171562)
(227.58878 0 -3.829508)
(226.80479 5.1349342e-18 -3.8317663)
(226.01236 1.5583046e-16 -3.8235702)
(225.21319 -1.4264779e-16 -3.8046473)
(224.40912 -1.3971451e-16 -3.7748219)
(223.60202 1.237069e-16 -3.7340256)
(222.79386 0 -3.6823047)
(221.98664 -1.184005e-16 -3.6198221)
(221.18237 1.1175579e-16 -3.5468629)
(220.38306 -2.1180123e-16 -3.4638308)
(219.59067 1.9982753e-16 -3.3712461)
(218.80712 -1.9516428e-16 -3.2697386)
(218.03425 3.5731454e-16 -3.1600367)
(217.27378 5.6000491e-18 -3.0429569)
(216.52733 2.9854112e-19 -2.9193878)
(215.79637 -1.5040032e-16 -2.7902746)
(215.08221 1.4224766e-16 -2.6566013)
(214.38601 -1.2564832e-16 -2.5193731)
(213.70874 0 -2.3795969)
(213.05122 7.4681108e-18 -2.2382657)
(212.41407 0 -2.0963393)
(211.79772 6.6458003e-18 -1.9547304)
(211.20243 2.0693656e-16 -1.8142912)
(210.62826 -3.7823227e-16 -1.6758013)
(210.07511 1.0921001e-17 -1.5399569)
(209.54266 1.6807763e-16 -1.4073603)
(209.0304 -1.4877506e-16 -1.2785272)
(208.53762 1.4013826e-16 -1.153863)
(208.06348 -8.8184051e-18 -1.0337099)
(207.60705 0 -0.91831433)
(207.16717 0 -0.80782843)
(206.74239 -1.1113269e-16 -0.70233776)
(206.33092 1.1181276e-16 -0.60186025)
(205.93069 -9.9079098e-17 -0.50635969)
(205.5394 1.934009e-16 -0.4157523)
(205.15481 -1.8874714e-16 -0.32991344)
(204.77484 8.3676427e-17 -0.24868884)
(204.39729 5.2840989e-18 -0.17191051)
(204.01946 0 -0.099440114)
(203.63795 4.7510303e-18 -0.031181311)
(203.24963 -4.5130105e-18 0.033128547)
(202.85318 0 0.093880317)
(202.44945 -3.3751279e-17 0.14843802)
(202.0183 6.2471243e-17 0.19751982)
(201.67487 -3.1745297e-17 0.29101954)
(201.00064 0 0.14265458)
(200.9833 0 0.70939547)
(216.11204 0 -11.152772)
(253.58279 -3.7085182e-18 3.3085272)
(239.2726 -1.1963557e-16 -10.466836)
(247.51789 1.1009296e-16 1.6789766)
(242.56758 0 -8.7936146)
(245.05572 1.0139161e-16 -0.42188178)
(243.09924 -1.8739778e-16 -7.0605071)
(243.72619 -1.02203e-19 -2.3222578)
(242.82598 8.4451808e-17 -5.7491266)
(242.72834 0 -3.6760641)
(242.19385 -1.5255523e-16 -5.0475679)
(241.83541 1.4922703e-16 -4.4378268)
(241.37532 1.419372e-16 -4.8634171)
(240.92602 -2.6129134e-16 -4.8025125)
(240.44691 1.2011976e-16 -4.9446925)
(239.95073 1.1043501e-17 -5.01038)
(239.43375 1.1548153e-16 -5.0994505)
(238.89672 -1.0285002e-16 -5.1796486)
(238.33933 0 -5.2593325)
(237.76157 0 -5.3357993)
(237.16345 5.6756639e-18 -5.408928)
(236.54503 -1.7804766e-16 -5.4780086)
(235.90649 3.3761172e-16 -5.5424042)
(235.24808 -3.1547333e-16 -5.6014283)
(234.57018 1.4259041e-16 -5.6543785)
(233.87326 0 -5.7005371)
(233.15795 1.2436558e-16 -5.7391756)
(232.42499 -1.3335642e-16 -5.7695705)
(231.67526 0 -5.7910094)
(230.90981 3.5244802e-18 -5.8028027)
(230.1298 -1.336775e-17 -5.8042954)
(229.33657 0 -5.794882)
(228.53158 0 -5.7740151)
(227.71644 -1.7057228e-16 -5.7412258)
(226.89289 3.386974e-16 -5.6961326)
(226.06278 -1.6263877e-16 -5.6384557)
(225.22806 -1.5904626e-16 -5.5680305)
(224.39077 1.4556723e-16 -5.4848152)
(223.55299 -1.1212113e-16 -5.388901)
(222.71684 -2.8736537e-19 -5.2805174)
(221.88447 -2.6880643e-19 -5.1600346)
(221.05796 2.3272361e-16 -5.0279625)
(220.23941 -1.0980211e-16 -4.8849469)
(219.43078 0 -4.7317609)
(218.63397 2.0232299e-16 -4.569295)
(217.85075 1.1936145e-17 -4.3985423)
(217.08274 -5.1148322e-18 -4.2205809)
(216.33142 -1.6449791e-16 -4.0365557)
(215.59808 0 -3.8476581)
(214.88384 -1.4652466e-16 -3.655104)
(214.18963 -8.8578232e-18 -3.4601143)
(213.5162 2.6006205e-16 -3.263892)
(212.8641 -1.3006389e-16 -3.0676044)
(212.23371 0 -2.8723645)
(211.62523 -2.0379538e-17 -2.6792144)
(211.03867 -2.1117573e-16 -2.4891144)
(210.47388 3.612204e-16 -2.3029292)
(209.93053 -2.1524441e-16 -2.1214203)
(209.40813 0 -1.9452368)
(208.906 -1.7077636e-16 -1.7749229)
(208.42329 1.7946122e-16 -1.6108958)
(207.95903 2.6682969e-17 -1.4534855)
(207.51219 0 -1.3029282)
(207.08153 -1.41875e-16 -1.1593458)
(206.66558 7.3201549e-18 -1.0227858)
(206.26256 1.116976e-16 -0.89322241)
(205.87034 -1.9734921e-17 -0.77056901)
(205.4866 9.299262e-17 -0.65468561)
(205.10899 -1.0511482e-16 -0.54538274)
(204.73537 5.5081409e-18 -0.44243271)
(204.36354 -5.1973348e-18 -0.34559222)
(203.99085 0 -0.25465484)
(203.6139 -4.6374705e-18 -0.1694463)
(203.22943 4.3864269e-18 -0.089617737)
(202.83543 8.3077672e-18 -0.015324238)
(202.43027 9.8441705e-19 0.051316442)
(202.01853 0 0.11984329)
(201.61575 3.0227067e-17 0.19167711)
(201.07632 -5.756968e-17 0.1157388)
(200.87952 2.5858511e-17 0.60271612)
(217.2664 0 -14.036968)
(255.04575 -1.2197893e-16 1.0674888)
(240.23165 2.4967005e-16 -13.476466)
(248.75061 -2.2256321e-16 -0.57566706)
(243.54568 1.1012968e-16 -11.730795)
(246.16946 -3.2579015e-18 -2.7717838)
(244.0858 9.9247347e-17 -9.8547253)
(244.73796 -9.3962804e-17 -4.8010791)
(243.78081 -5.5800164e-18 -8.4061524)
(243.65981 -5.2977426e-18 -6.2416082)
(243.08968 -1.00651e-17 -7.6249076)
(242.69498 1.3886143e-16 -7.0205427)
(242.19913 -1.4076199e-16 -7.4154139)
(241.71101 1.3815363e-16 -7.361602)
(241.19248 -1.1868394e-16 -7.4827174)
(240.65522 -1.5555628e-17 -7.5405692)
(240.09589 0 -7.6142497)
(239.51524 -1.1929029e-20 -7.6798019)
(238.91305 -2.2626034e-16 -7.7425954)
(238.28942 -3.679333e-19 -7.8006018)
(237.64445 1.7342317e-16 -7.8533877)
(236.97835 1.703532e-17 -7.9001616)
(236.29144 -2.1547233e-17 -7.940169)
(235.58412 0 -7.9726204)
(234.85696 6.6784257e-21 -7.9967174)
(234.11064 -1.6540877e-16 -8.0116545)
(233.34598 1.4777215e-16 -8.0166308)
(232.56397 8.24734e-18 -8.0108578)
(231.76575 0 -7.9935781)
(230.95263 -7.3989437e-18 -7.9640721)
(230.12607 -2.2388323e-21 -7.9216794)
(229.28769 -1.9917428e-16 -7.8658109)
(228.43926 2.0059137e-16 -7.7959649)
(227.58269 1.1887592e-17 -7.7117472)
(226.72001 -1.7994352e-16 -7.6128804)
(225.85335 1.4850523e-16 -7.4992225)
(224.98492 -1.8095763e-16 -7.3707765)
(224.11699 1.5167261e-16 -7.2277004)
(223.25184 -1.4361145e-16 -7.0703115)
(222.39176 1.3534699e-16 -6.8990919)
(221.53899 1.6004152e-17 -6.7146852)
(220.69572 0 -6.51789)
(219.86401 1.9963352e-16 -6.3096517)
(219.04583 -2.4163684e-16 -6.0910482)
(218.24298 0 -5.8632726)
(217.4571 1.7934485e-16 -5.6276148)
(216.68963 -1.5737827e-16 -5.3854365)
(215.94182 1.6980684e-16 -5.1381497)
(215.21474 -1.7961048e-16 -4.887191)
(214.50921 0 -4.6339978)
(213.82588 1.7711372e-16 -4.3799858)
(213.16518 -1.331072e-16 -4.1265247)
(212.52738 0 -3.8749201)
(211.91253 0 -3.626396)
(211.32054 1.2472003e-16 -3.3820785)
(210.75114 -2.0829131e-16 -3.1429868)
(210.20392 1.2227168e-16 -2.9100219)
(209.6783 1.8401612e-16 -2.6839619)
(209.17359 1.988861e-19 -2.4654543)
(208.68892 1.7695617e-19 -2.2550251)
(208.22327 -3.2390477e-16 -2.0530668)
(207.77554 8.9390873e-17 -1.8598592)
(207.34458 0 -1.6755949)
(206.92908 1.4207632e-16 -1.5003415)
(206.52754 -1.6297606e-16 -1.3340839)
(206.13817 1.1139504e-16 -1.1767325)
(205.75884 1.3148319e-17 -1.0281335)
(205.3872 -8.5956846e-17 -0.8880801)
(205.02085 1.1543066e-17 -0.75631615)
(204.6576 2.1708096e-17 -0.63254698)
(204.29528 -1.02086e-16 -0.51645532)
(203.93133 9.6011824e-17 -0.40774793)
(203.56241 -7.2341685e-17 -0.30617833)
(203.18507 1.3626945e-16 -0.21147999)
(202.79685 -5.6192777e-17 -0.12400099)
(202.39768 -6.0629442e-17 -0.044026546)
(201.99324 5.009385e-17 0.036522847)
(201.57021 0 0.099748024)
(201.09018 3.2058054e-18 0.086459168)
(200.81442 -1.2158196e-17 0.49082946)
(218.2549 0 -16.989996)
(256.35201 0 -1.3072221)
(240.96152 0 -16.615765)
(249.78461 1.0635831e-16 -2.9344155)
(244.33402 -1.2373482e-16 -14.795875)
(247.11136 -2.2016148e-16 -5.2393497)
(244.88637 2.0956852e-16 -12.766234)
(245.56638 -1.2408652e-17 -7.4069204)
(244.54489 5.9103418e-18 -11.173381)
(244.39662 -1.7379351e-16 -8.9385157)
(243.78648 1.701608e-16 -10.313472)
(243.35014 1.0112562e-17 -9.7286343)
(242.81386 -1.535708e-16 -10.084702)
(242.28182 1.3642313e-16 -10.039536)
(241.71902 -1.3181762e-20 -10.138174)
(241.13579 -8.1828433e-18 -10.186107)
(240.5294 0 -10.242651)
(239.90051 -7.3861305e-18 -10.290982)
(239.24907 -2.1025932e-16 -10.334132)
(238.57525 2.1230387e-16 -10.370535)
(237.8793 1.2601836e-17 -10.399534)
(237.16156 -1.1947678e-17 -10.420251)
(236.42252 2.1530644e-16 -10.43183)
(235.66279 -1.7150115e-16 -10.433386)
(234.88314 1.0170244e-17 -10.424021)
(234.08449 1.9285065e-16 -10.40285)
(233.26796 -1.2756879e-16 -10.368996)
(232.43481 0 -10.321621)
(231.58651 1.4740773e-16 -10.259929)
(230.7247 -1.2372899e-16 -10.183199)
(229.85118 2.493634e-16 -10.09079)
(228.96793 -1.3315871e-17 -9.9821695)
(228.07708 -2.0945804e-16 -9.856928)
(227.18086 1.7373209e-16 -9.7147988)
(226.28163 -1.8715001e-16 -9.5556703)
(225.38183 -3.1571664e-20 -9.3796035)
(224.48392 2.0922191e-16 -9.1868389)
(223.59039 -3.1574938e-16 -8.977803)
(222.7037 9.2929169e-17 -8.7531106)
(221.82626 3.5185622e-17 -8.5135607)
(220.96035 -4.9752739e-17 -8.2601313)
(220.10817 0 -7.9939631)
(219.27172 -8.8530266e-17 -7.7163458)
(218.45284 1.38652e-16 -7.4286947)
(217.65315 -2.0935721e-16 -7.1325283)
(216.87407 1.9671135e-16 -6.8294435)
(216.11678 -2.0864545e-16 -6.5210848)
(215.38221 3.9232753e-16 -6.2091181)
(214.67108 -3.0745924e-16 -5.8952038)
(213.98388 3.0831478e-16 -5.5809692)
(213.32088 -1.4471183e-16 -5.2679849)
(212.68217 1.3622294e-16 -4.9577437)
(212.06762 -9.5761957e-17 -4.65164)
(211.47697 3.0029301e-17 -4.3509579)
(210.90979 0 -4.0568551)
(210.3655 0 -3.7703583)
(209.84342 0 -3.4923554)
(209.34273 2.3245059e-17 -3.2235932)
(208.86251 0 -2.964675)
(208.40171 -1.6360944e-16 -2.7160693)
(207.95917 1.9153174e-16 -2.478108)
(207.53365 -1.0780632e-16 -2.2509953)
(207.12389 -1.1713141e-19 -2.0348498)
(206.72854 2.5222396e-16 -1.8296659)
(206.34608 2.9623836e-17 -1.6353502)
(205.97471 -1.3834057e-16 -1.4517364)
(205.61233 5.1879753e-17 -1.2785953)
(205.25658 -1.4574901e-16 -1.1156467)
(204.90505 -4.5542513e-17 -0.96256737)
(204.55547 -6.4020108e-17 -0.81899792)
(204.20574 -6.0035729e-17 -0.68454413)
(203.85341 5.6261208e-17 -0.55882712)
(203.49523 0 -0.44157783)
(203.12748 0 -0.33262376)
(202.74773 -1.5508423e-17 -0.23203973)
(202.35717 0 -0.13902313)
(201.95795 6.8509883e-18 -0.049925307)
(201.53342 5.159127e-17 0.015572991)
(201.09235 -7.2872819e-17 0.048483337)
(200.75817 -1.3909961e-20 0.37600341)
(219.05888 0 -20.140154)
(257.48257 -8.7766561e-18 -3.7539485)
(241.55687 2.6640166e-16 -19.887817)
(250.62626 -2.4837939e-16 -5.4192657)
(244.88545 2.5396011e-16 -17.974913)
(247.84629 -2.3212187e-16 -7.8598958)
(245.48295 -2.2145562e-16 -15.782939)
(246.18034 2.0956459e-16 -10.170211)
(245.09611 0 -14.043204)
(244.91093 0 -11.784664)
(244.25883 1.7966602e-16 -13.115557)
(243.77439 -1.7021053e-16 -12.568514)
(243.19321 -1.011184e-17 -12.875865)
(242.61235 2.8763159e-17 -12.838479)
(242.00057 -9.102248e-18 -12.912473)
(241.36675 3.4524196e-17 -12.946717)
(240.7087 0 -12.983212)
(240.02701 0 -13.010659)
(239.32175 -2.3578587e-16 -13.030476)
(238.59321 2.0910794e-16 -13.041313)
(237.8418 0 -13.04232)
(237.06804 0 -13.032502)
(236.27266 -1.9026477e-16 -13.01086)
(235.45652 3.6007345e-16 -12.976388)
(234.6207 -1.7030189e-16 -12.928078)
(233.76644 -2.017521e-17 -12.864944)
(232.89522 -3.8213143e-17 -12.786045)
(232.0087 -1.4479602e-16 -12.690502)
(231.10874 1.1955e-16 -12.577516)
(230.19739 0 -12.446397)
(229.27689 -3.0620659e-17 -12.296579)
(228.34962 0 -12.127651)
(227.41811 0 -11.939365)
(226.48498 2.0670697e-16 -11.731664)
(225.55292 -2.1909175e-16 -11.50469)
(224.62466 2.2982143e-17 -11.258794)
(223.70292 -2.1685134e-17 -10.994546)
(222.79035 -4.1000416e-17 -10.71273)
(221.88955 -8.8521007e-20 -10.414342)
(221.00294 8.4002662e-20 -10.100573)
(220.13279 -7.9201425e-20 -9.7728007)
(219.2812 0 -9.4325613)
(218.44999 -1.2171248e-16 -9.0815287)
(217.64076 1.1429365e-16 -8.7214812)
(216.85485 0 -8.3542726)
(216.09333 -5.066106e-17 -7.9818034)
(215.357 1.9040634e-16 -7.6059819)
(214.6464 -2.2321081e-16 -7.2286989)
(213.96181 -2.1000456e-16 -6.8517964)
(213.30329 1.5744948e-16 -6.4770418)
(212.67069 1.1104908e-16 -6.1061045)
(212.06366 -1.3861589e-16 -5.7405385)
(211.4817 -3.2498344e-17 -5.3817642)
(210.92415 -2.1350252e-16 -5.031061)
(210.39025 1.1419024e-16 -4.6895554)
(209.87911 -1.0710044e-16 -4.358221)
(209.38976 1.0017737e-16 -4.0378759)
(208.92115 2.3472214e-16 -3.729183)
(208.47214 -1.7555382e-16 -3.4326535)
(208.04154 0 -3.1486583)
(207.62802 -3.8417801e-17 -2.8774287)
(207.23026 -7.1914044e-17 -2.6190669)
(206.84691 1.3437731e-16 -2.3735889)
(206.47658 1.2572544e-16 -2.1408963)
(206.11772 -2.3495377e-16 -1.920801)
(205.76858 8.2288412e-17 -1.7130478)
(205.42712 5.1297058e-17 -1.5173217)
(205.09099 9.590286e-17 -1.3332651)
(204.75776 1.3445093e-16 -1.1604874)
(204.42517 2.4456005e-20 -0.9985649)
(204.09113 0 -0.84702391)
(203.75335 0 -0.70541724)
(203.40866 -3.4219687e-17 -0.57349184)
(203.05325 9.6013102e-17 -0.45105425)
(202.68498 -8.9800705e-17 -0.33771982)
(202.30518 -8.4064362e-17 -0.23280909)
(201.9128 5.2458824e-17 -0.13628203)
(201.49578 0 -0.062795081)
(201.07872 4.6077628e-17 0.0010390954)
(200.70809 2.4643881e-20 0.26294433)
(219.66275 0 -23.460246)
(258.41484 1.8294143e-20 -6.2777467)
(241.95727 9.0646081e-18 -23.257358)
(251.29558 2.8765884e-16 -8.040025)
(245.27619 3.3344014e-19 -21.254156)
(248.34908 -5.0508804e-16 -10.627308)
(245.83412 -3.240736e-19 -18.892158)
(246.55518 4.5577162e-16 -13.092974)
(245.40449 -2.0976565e-16 -17.011463)
(245.17879 -1.2442281e-17 -14.777682)
(244.48388 1.1817692e-17 -16.02831)
(243.94642 -1.7945462e-16 -15.531694)
(243.31668 1.9119413e-16 -15.782396)
(242.68273 -1.8166989e-16 -15.748982)
(242.01747 3.0603347e-16 -15.796304)
(241.32829 -3.0834393e-16 -15.812707)
(240.61353 1.3742725e-16 -15.82608)
(239.8738 0 -15.828956)
(239.10935 0 -15.821592)
(238.32069 1.4638886e-17 -15.802635)
(237.50847 -2.7759281e-17 -15.771001)
(236.67353 0 -15.725523)
(235.81691 1.9933606e-16 -15.665038)
(234.93987 4.744299e-19 -15.588402)
(234.04388 -3.5674379e-16 -15.494499)
(233.13066 1.6856223e-16 -15.382272)
(232.20212 1.9943645e-17 -15.250748)
(231.26043 0 -15.099054)
(230.30794 -1.7866981e-16 -14.926452)
(229.3472 1.347246e-16 -14.732359)
(228.38094 -2.2341803e-16 -14.516372)
(227.412 2.1028509e-16 -14.278296)
(226.44335 -2.2759376e-16 -14.018151)
(225.47798 2.1422661e-16 -13.736201)
(224.51892 7.5944998e-17 -13.43295)
(223.56915 0 -13.109155)
(222.63157 0 -12.76582)
(221.70893 4.2326124e-17 -12.404184)
(220.80382 3.9866171e-17 -12.025709)
(219.91861 -3.7533687e-17 -11.632054)
(219.0554 3.5322863e-17 -11.225053)
(218.21602 6.6648516e-17 -10.806674)
(217.402 -6.2595049e-17 -10.378997)
(216.61457 3.5293379e-16 -9.9441651)
(215.85462 -2.7608148e-16 -9.5043526)
(215.12276 5.1816927e-17 -9.0617305)
(214.4193 -4.8760579e-17 -8.6184271)
(213.74425 0 -8.1765)
(213.09742 2.1431353e-16 -7.7379062)
(212.47835 -1.605274e-16 -7.304481)
(211.88642 0 -6.8779159)
(211.32082 0 -6.4597485)
(210.78064 1.3209337e-16 -6.051349)
(210.26484 -6.1742379e-17 -5.6539178)
(209.77231 0 -5.2684819)
(209.30188 -1.6222865e-16 -4.8958974)
(208.85231 1.0098494e-16 -4.5368541)
(208.42234 1.4174831e-16 -4.1918804)
(208.01066 -1.7632499e-16 -3.8613501)
(207.61592 1.6481457e-16 -3.5454981)
(207.23672 -1.5373917e-16 -3.2444225)
(206.87164 6.7216781e-20 -2.9580976)
(206.51927 0 -2.6864156)
(206.17821 6.2492893e-17 -2.4291684)
(205.84694 -2.9137337e-16 -2.1860616)
(205.52376 1.6295982e-16 -1.9567417)
(205.2067 0 -1.7408034)
(204.89347 -1.4169316e-16 -1.5378088)
(204.58166 8.8018996e-17 -1.3473012)
(204.26898 1.2313842e-16 -1.16879)
(203.95343 3.440556e-20 -1.0017257)
(203.63284 -7.1271734e-17 -0.84562382)
(203.30414 9.9678782e-17 -0.70025188)
(202.96365 -1.5484984e-16 -0.565248)
(202.60946 8.6610651e-17 -0.4398347)
(202.24225 2.6906859e-17 -0.32431448)
(201.85927 5.0223918e-17 -0.22061045)
(201.45524 0 -0.13447478)
(201.05751 -4.3746646e-17 -0.049983701)
(200.65947 2.0377395e-17 0.15293536)
(220.05625 0 -26.946817)
(259.14367 9.7659477e-18 -8.9090604)
(242.16087 -3.0560085e-16 -26.753072)
(251.78221 2.490714e-16 -10.801485)
(245.47737 2.5633549e-16 -24.633156)
(248.60958 -4.9951459e-16 -13.548042)
(245.9934 2.2994285e-16 -22.083992)
(246.6822 2.3272824e-16 -16.175861)
(245.48705 -2.2062361e-16 -20.062856)
(245.19328 3.9269286e-17 -17.903856)
(244.45335 0 -19.039755)
(243.85687 0 -18.603439)
(243.17302 -2.233659e-17 -18.79447)
(242.47954 -1.6959263e-16 -18.761415)
(241.75391 1.4035177e-16 -18.781794)
(241.00216 1.904063e-17 -18.777163)
(240.22331 -3.6093975e-17 -18.764665)
(239.41811 3.0794494e-16 -18.739226)
(238.58713 -2.2629358e-16 -18.700299)
(237.73123 2.4562556e-16 -18.646414)
(236.85143 -2.0297595e-16 -18.576278)
(235.949 2.7521672e-17 -18.488563)
(235.02544 1.5635367e-16 -18.381966)
(234.08251 -1.9665026e-16 -18.255247)
(233.12222 0 -18.10723)
(232.14683 0 -17.936846)
(231.15887 0 -17.743161)
(230.16107 -1.9696692e-16 -17.525402)
(229.15638 1.8553782e-16 -17.282991)
(228.14792 -3.5159096e-17 -17.015565)
(227.13895 0 -16.723013)
(226.1328 -2.8184439e-16 -16.405485)
(225.13285 2.355554e-16 -16.063412)
(224.14246 -5.5719151e-17 -15.69751)
(223.1649 1.5757184e-16 -15.308789)
(222.20333 -4.8963217e-17 -14.89853)
(221.26069 -1.8572854e-16 -14.468289)
(220.33971 2.1910965e-16 -14.019857)
(219.44281 -1.6449277e-16 -13.555242)
(218.57211 7.7596223e-17 -13.076626)
(217.72938 -7.2807069e-17 -12.586334)
(216.91603 1.3687409e-16 -12.08678)
(216.13309 -6.4132367e-17 -11.580436)
(215.38124 -2.4138793e-16 -11.069779)
(214.66081 5.0900417e-16 -10.557253)
(213.9718 -2.1199809e-16 -10.045233)
(213.31392 -1.4939762e-16 -9.5359877)
(212.6866 9.288399e-17 -9.0316534)
(212.08905 8.737868e-17 -8.53421)
(211.5203 -1.6346122e-16 -8.0454638)
(210.97922 1.5272868e-16 -7.5670356)
(210.46455 0 -7.1003552)
(209.97495 1.3368457e-16 -6.6466572)
(209.50905 -1.8725354e-16 -6.206985)
(209.06541 5.8355471e-17 -5.7821943)
(208.64261 5.4384575e-17 -5.3729616)
(208.23919 0 -4.9797938)
(207.85372 0 -4.6030377)
(207.48476 0 -4.2428908)
(207.13086 0 -3.8994195)
(206.79057 0 -3.5725628)
(206.46241 -7.1459929e-17 -3.2621474)
(206.14499 0 -2.9679272)
(205.83688 -5.4600392e-20 -2.6895718)
(205.53662 2.3076294e-16 -2.4266744)
(205.24261 -2.1467376e-16 -2.1787781)
(204.95296 -9.9934097e-17 -1.9453855)
(204.66549 -1.858153e-16 -1.7259803)
(204.37782 2.59016e-16 -1.5200392)
(204.08769 4.434349e-20 -1.3270035)
(203.79312 7.460423e-17 -1.1462611)
(203.4921 0 -0.97732224)
(203.18171 0 -0.81993874)
(202.85855 0 -0.67345475)
(202.52083 -1.1136267e-16 -0.53695268)
(202.16801 0 -0.41221517)
(201.79695 -9.6219698e-17 -0.30126851)
(201.40978 1.3414756e-16 -0.19981656)
(201.0293 8.3158981e-17 -0.10037247)
(200.61066 -1.9276586e-17 0.047236778)
(220.24313 0 -30.609256)
(259.67534 0 -11.648666)
(242.17259 3.2151542e-16 -30.380626)
(252.08864 1.925514e-17 -13.720374)
(245.48901 -2.6906922e-16 -28.122796)
(248.71646 0 -16.643783)
(245.93579 1.6119563e-17 -25.351105)
(246.68492 -3.0548175e-17 -19.409606)
(245.3065 0 -23.178633)
(244.95263 1.9260503e-16 -21.150235)
(244.16043 -4.1701764e-16 -22.150009)
(243.49377 1.9746897e-16 -21.781981)
(242.74554 2.344002e-17 -21.915277)
(241.98225 0 -21.877988)
(241.18602 2.1032074e-17 -21.870412)
(240.36175 -3.3928309e-16 -21.840219)
(239.50912 7.4793861e-17 -21.797149)
(238.62913 2.5004266e-16 -21.737554)
(237.7228 2.3746923e-16 -21.660385)
(236.79138 -2.5613835e-16 -21.564054)
(235.83643 0 -21.44709)
(234.85975 -2.874095e-16 -21.308045)
(233.86345 2.4402461e-16 -21.145522)
(232.84992 -2.0568959e-16 -20.958239)
(231.82185 1.9386315e-16 -20.745041)
(230.78219 -1.8372904e-16 -20.504932)
(229.73415 3.4659543e-16 -20.237137)
(228.68117 -1.6356253e-16 -19.941105)
(227.62684 1.5469094e-16 -19.616563)
(226.5749 -2.9164374e-16 -19.263532)
(225.52915 1.372631e-16 -18.882351)
(224.49337 1.2963832e-16 -18.473694)
(223.47131 -2.4459936e-16 -18.038563)
(222.46657 5.6779352e-17 -17.578294)
(221.48255 -5.772583e-19 -17.094544)
(220.5224 2.544798e-16 -16.589251)
(219.58894 0 -16.064626)
(218.68462 1.9780496e-19 -15.523097)
(217.81152 0 -14.967267)
(216.97127 -7.9436695e-17 -14.399866)
(216.16506 -1.492908e-16 -13.823704)
(215.39367 7.0100428e-17 -13.241608)
(214.65747 0 -12.656384)
(213.9564 -6.1774827e-17 -12.070763)
(213.29009 2.8913641e-16 -11.487363)
(212.65781 -3.2461642e-16 -10.908653)
(212.0586 -3.0416534e-16 -10.336926)
(211.49124 2.8399713e-16 -9.7742796)
(210.95435 -1.7723636e-16 -9.2225964)
(210.4464 0 -8.6835421)
(209.96578 0 -8.1585604)
(209.51081 7.2340864e-17 -7.6488758)
(209.07979 6.7512257e-17 -7.1555014)
(208.67103 1.2582041e-16 -6.679247)
(208.28286 -5.8673173e-17 -6.2207315)
(207.91364 -1.0929593e-16 -5.7803964)
(207.56176 -2.0381838e-16 -5.35852)
(207.22568 -9.5087416e-17 -4.9552305)
(206.90388 1.7654165e-16 -4.5705197)
(206.59489 0 -4.2042636)
(206.29721 -7.6469765e-17 -3.8562245)
(206.00939 -1.4214397e-16 -3.5260703)
(205.73006 1.3206897e-16 -3.2134103)
(205.45785 6.1258355e-17 -2.9177866)
(205.19135 5.6976286e-17 -2.6386787)
(204.92907 0 -2.3755272)
(204.66926 1.9643363e-16 -2.1277454)
(204.40987 1.8227781e-16 -1.8947421)
(204.1486 -2.5365087e-16 -1.6759281)
(203.88321 7.8448607e-17 -1.4706779)
(203.61177 -7.271864e-17 -1.2783396)
(203.33234 -4.5076957e-20 -1.0984423)
(203.04228 2.4994723e-16 -0.93065081)
(202.73862 -2.3165571e-16 -0.77394817)
(202.41944 5.3632776e-17 -0.627635)
(202.08264 1.4919127e-16 -0.49511057)
(201.726 -4.6087552e-17 -0.3766829)
(201.35892 -4.2693165e-17 -0.25917226)
(200.99484 0 -0.15164044)
(200.56018 3.6575829e-17 -0.053472059)
(220.23054 3.8888271e-16 -34.456768)
(260.01127 5.4137437e-19 -14.503895)
(241.96314 -3.5835867e-16 -34.153942)
(252.20539 0 -16.799104)
(245.22892 0 -31.683863)
(248.44472 -2.6714861e-16 -19.908472)
(245.57734 2.7046474e-16 -28.675543)
(246.14411 6.4126745e-17 -22.808021)
(244.87346 -2.4346544e-16 -26.39994)
(244.4278 2.3027952e-16 -24.545507)
(243.57305 -2.4613855e-16 -25.386709)
(242.82357 2.0688335e-16 -25.082133)
(241.99903 -4.9082177e-17 -25.156679)
(241.15438 -4.6547214e-17 -25.105309)
(240.27614 -1.7638066e-16 -25.064578)
(239.36833 1.6659552e-16 -25.000956)
(238.4313 -3.5578153e-16 -24.919287)
(237.46648 5.9805337e-16 -24.81661)
(236.47541 -2.8257285e-16 -24.691471)
(235.45996 -2.6812413e-16 -24.542121)
(234.42234 2.5284089e-16 -24.366937)
(233.36507 -3.0116243e-17 -24.164376)
(232.29105 -2.2666443e-16 -23.933018)
(231.20348 2.1351623e-16 -23.671631)
(230.10586 2.5294611e-16 -23.379188)
(229.00198 -1.4262051e-16 -23.054922)
(227.89586 0 -22.698373)
(226.79168 2.5507936e-16 -22.309405)
(225.69373 -3.2038823e-16 -21.888251)
(224.60633 1.1272345e-16 -21.43552)
(223.53378 -2.8502834e-16 -20.952217)
(222.48023 2.0081685e-16 -20.439734)
(221.44961 -6.3281514e-17 -19.899843)
(220.44559 2.3779977e-16 -19.334664)
(219.47145 -2.2306076e-16 -18.746642)
(218.5301 -2.1023783e-16 -18.138493)
(217.62393 1.9705187e-16 -17.513152)
(216.75486 -4.6215755e-17 -16.873726)
(215.9243 0 -16.223417)
(215.13312 8.1793696e-17 -15.56547)
(214.38172 -7.6337584e-17 -14.903107)
(213.67 0 -14.239476)
(212.99747 1.3442958e-16 -13.577594)
(212.36321 -6.2887906e-17 -12.920309)
(211.76602 -1.7632526e-16 -12.270265)
(211.2044 5.500259e-16 -11.629876)
(210.67666 -2.0594651e-16 -11.00131)
(210.18095 9.6052484e-17 -10.386479)
(209.71529 -2.6934343e-16 -9.7870402)
(209.27767 -1.8171492e-19 -9.204395)
(208.86605 1.5617442e-16 -8.6397033)
(208.4784 -1.4569453e-16 -8.0938923)
(208.11274 -6.7803933e-17 -7.5676735)
(207.76714 -6.3159927e-17 -7.0615587)
(207.43976 -1.1793632e-16 -6.5758771)
(207.12884 2.1902294e-16 -6.1107938)
(206.8327 0 -5.6663265)
(206.54974 9.4652583e-17 -5.2423613)
(206.27845 -3.5221385e-16 -4.8386686)
(206.01735 2.4513714e-16 -4.4549231)
(205.76501 7.5865365e-17 -4.0907044)
(205.52003 1.4094063e-16 -3.7455204)
(205.28109 1.3095629e-16 -3.4188375)
(205.04689 -1.2117232e-16 -3.1100725)
(204.81614 -1.1229117e-16 -2.8185958)
(204.58748 -3.1237648e-16 -2.5437519)
(204.35932 -4.0778467e-20 -2.2848722)
(204.12975 -8.9276434e-17 -2.0412962)
(203.8966 0 -1.812369)
(203.65769 -2.2951727e-16 -1.5974061)
(203.4111 7.077493e-17 -1.3957454)
(203.15493 0 -1.2069403)
(202.8869 1.2109346e-16 -1.0304779)
(202.60461 0 -0.86499862)
(202.30569 1.0345781e-16 -0.71041037)
(201.98639 -1.4337449e-16 -0.57148641)
(201.64659 1.324967e-16 -0.44519418)
(201.30217 -8.1602292e-17 -0.31155016)
(200.95377 7.5366498e-17 -0.20118007)
(200.50757 0 -0.14832225)
(220.0017 -4.0854195e-16 -38.496165)
(260.13593 3.6168005e-16 -17.491484)
(241.4974 -3.3245976e-16 -38.098522)
(252.04716 3.3001102e-16 -20.049725)
(244.6814 3.1660404e-16 -35.309344)
(247.95779 -1.7975616e-17 -23.365395)
(244.98957 -2.8342577e-16 -32.088336)
(245.4892 -2.689828e-16 -26.398767)
(244.12566 2.8637565e-16 -29.739197)
(243.57495 0 -28.085747)
(242.64726 2.8574965e-17 -28.753311)
(241.80254 0 -28.500633)
(240.88911 -1.285366e-16 -28.51614)
(239.95084 2.4269634e-16 -28.439273)
(238.97837 0 -28.357776)
(237.97525 0 -28.250591)
(236.94264 0 -28.11949)
(235.88259 3.9092443e-17 -27.961769)
(234.7974 0 -27.77566)
(233.68978 -2.4448887e-16 -27.559291)
(232.56281 3.2941276e-16 -27.310944)
(231.42 1.246465e-16 -27.029093)
(230.2652 1.7674356e-16 -26.712417)
(229.10262 -2.7762182e-16 -26.359896)
(227.93675 -5.2313486e-17 -25.970835)
(226.77232 -2.4759228e-16 -25.544913)
(225.61422 1.8634527e-16 -25.082229)
(224.46741 -2.2010058e-16 -24.583325)
(223.33682 8.2342422e-17 -24.049196)
(222.22727 7.7854734e-17 -23.481304)
(221.14337 0 -22.88156)
(220.08939 2.7700464e-16 -22.252301)
(219.06921 -2.6017366e-16 -21.596256)
(218.08624 0 -20.916487)
(217.1433 -2.3001304e-16 -20.21634)
(216.24264 2.154443e-16 -19.499364)
(215.38591 -1.0153768e-16 -18.769243)
(214.57411 1.9009648e-16 -18.029718)
(213.80766 -2.6711176e-16 -17.284514)
(213.08639 1.2763944e-19 -16.537265)
(212.40964 -1.5607278e-16 -15.791459)
(211.77627 -7.3040809e-17 -15.050383)
(211.18476 -1.3709302e-16 -14.317078)
(210.63328 2.5557903e-16 -13.594317)
(210.11974 -1.1926634e-16 -12.884576)
(209.64189 0 -12.190031)
(209.19733 -3.8324048e-19 -11.512556)
(208.78364 9.7032195e-17 -10.853728)
(208.39836 0 -10.214842)
(208.03906 8.4402017e-17 -9.5969247)
(207.70338 7.8919452e-17 -9.0007559)
(207.38906 -7.3280528e-17 -8.4268897)
(207.09392 2.728308e-16 -7.8756759)
(206.81592 -2.5363985e-16 -7.3472822)
(206.55314 -1.1796621e-16 -6.841715)
(206.30378 -1.0959208e-16 -6.3588403)
(206.06618 1.0176267e-16 -5.8984011)
(205.83878 1.8877243e-16 -5.4600346)
(205.6201 -3.5017276e-16 -5.0432881)
(205.40875 4.0583466e-16 -4.6476382)
(205.20339 -1.5037813e-16 -4.2724867)
(205.00272 1.3939158e-16 -3.9171898)
(204.80552 -1.2903655e-16 -3.581082)
(204.61061 2.3898316e-16 -3.2634629)
(204.41683 -3.3176314e-16 -2.9636054)
(204.22294 2.0451941e-16 -2.6807689)
(204.02754 -7.9766931e-20 -2.4142141)
(203.82892 8.7423191e-17 -2.1632179)
(203.62506 0 -1.9270614)
(203.41386 0 -1.705015)
(203.19336 0 -1.4964387)
(202.96171 -1.2706222e-16 -1.3008893)
(202.71707 1.4136267e-20 -1.1175896)
(202.45763 0 -0.94496095)
(202.1803 0 -0.78385554)
(201.87981 9.1904711e-17 -0.63980632)
(201.55912 -1.6936458e-16 -0.50524029)
(201.23901 0 -0.35628946)
(200.90554 0 -0.24684055)
(200.45289 -1.3193929e-16 -0.23487994)
(219.52176 2.7579511e-17 -42.735538)
(260.00905 -7.8311243e-16 -20.629583)
(240.74698 3.478141e-16 -42.181903)
(251.35462 -2.169302e-17 -23.483649)
(243.82397 3.7316282e-16 -39.056665)
(247.1283 -3.5161e-16 -27.046283)
(244.07066 0 -35.613756)
(244.44182 -3.1686441e-16 -30.177745)
(243.02748 2.3298089e-16 -33.191543)
(242.35149 2.2128597e-16 -31.764813)
(241.33732 -2.3887194e-16 -32.252908)
(240.38306 0 -32.033535)
(239.36607 1.9648016e-19 -31.987967)
(238.32033 0 -31.871867)
(237.24011 3.8481333e-16 -31.738341)
(236.129 -7.2695038e-16 -31.574023)
(234.98915 3.4319791e-16 -31.378817)
(233.82351 -4.0539752e-17 -31.150083)
(232.63544 -3.8527932e-17 -30.885839)
(231.42875 3.6623735e-17 -30.584171)
(230.20773 -6.837241e-17 -30.243428)
(228.97707 -3.2392137e-16 -29.862261)
(227.74186 3.0486263e-16 -29.439694)
(226.50747 5.7468872e-17 -28.975188)
(225.2795 -2.7238118e-16 -28.468667)
(224.06368 -7.0281654e-19 -27.920591)
(222.86574 2.8928812e-16 -27.331946)
(221.69133 -1.8157537e-16 -26.704278)
(220.54585 -6.2465823e-19 -26.03967)
(219.43434 0 -25.340724)
(218.36139 0 -24.61052)