/*--------------------------------*- C++ -*----------------------------------*\
| =========                 |                                                 |
| \\      /  F ield         | OpenFOAM: The Open Source CFD Toolbox           |
|  \\    /   O peration     | Version:  2512                                  |
|   \\  /    A nd           | Website:  www.openfoam.com                      |
|    \\/     M anipulation  |                                                 |
\*---------------------------------------------------------------------------*/
FoamFile
{
    version     2.0;
    format      ascii;
    arch        "LSB;label=32;scalar=64";
    class       volScalarField;
    location    "0.003";
    object      rho;
}
// * * * * * * * * * * * * * * * * * * * * * * * * * * * * * * * * * * * * * //

dimensions      [1 -3 0 0 0 0 0];

internalField   nonuniform List<scalar> 
100
(
0.999645
0.999645
0.999645
0.999645
0.999645
0.999645
0.999645
0.999645
0.999645
0.999645
0.999645
0.999645
0.999645
0.999645
0.999645
0.999645
0.999645
0.999645
0.999645
0.999645
0.999645
0.999645
0.999645
0.999645
0.999645
0.999645
0.999645
0.999645
0.999645
0.999645
0.999645
0.999645
0.999645
0.999645
0.999645
0.999645
0.999642
0.998894
0.983641
0.929174
0.85974
0.798604
0.745295
0.696415
0.650286
0.606258
0.564083
0.523746
0.485807
0.452492
0.430048
0.421958
0.43003
0.428455
0.425569
0.421208
0.41176
0.389515
0.349888
0.30552
0.271241
0.260239
0.259003
0.261887
0.26707
0.26594
0.218028
0.132789
0.124964
0.124955
0.124955
0.124955
0.124955
0.124955
0.124955
0.124955
0.124955
0.124955
0.124955
0.124955
0.124955
0.124955
0.124955
0.124955
0.124955
0.124955
0.124955
0.124955
0.124955
0.124955
0.124955
0.124955
0.124955
0.124955
0.124955
0.124955
0.124955
0.124955
0.124955
0.124955
)
;

boundaryField
{
    sides
    {
        type            calculated;
        value           nonuniform List<scalar> 2(0.124955 0.999645);
    }
    empty
    {
        type            empty;
    }
}


// ************************************************************************* //
