/*--------------------------------*- C++ -*----------------------------------*\
| =========                 |                                                 |
| \\      /  F ield         | OpenFOAM: The Open Source CFD Toolbox           |
|  \\    /   O peration     | Version:  2512                                  |
|   \\  /    A nd           | Website:  www.openfoam.com                      |
|    \\/     M anipulation  |                                                 |
\*---------------------------------------------------------------------------*/
FoamFile
{
    version     2.0;
    format      ascii;
    arch        "LSB;label=32;scalar=64";
    class       volVectorField;
    location    "0.003";
    object      U;
}
// * * * * * * * * * * * * * * * * * * * * * * * * * * * * * * * * * * * * * //

dimensions      [0 1 -1 0 0 0 0];

internalField   nonuniform List<vector> 
100
(
(-6.32531e-15 0 0)
(2.65475e-14 0 0)
(-7.21318e-15 0 0)
(1.24993e-14 0 0)
(4.77715e-14 0 0)
(4.03795e-14 0 0)
(-3.21551e-14 0 0)
(-1.25619e-13 0 0)
(-6.47349e-14 0 0)
(-8.67681e-15 0 0)
(2.52178e-14 0 0)
(3.47931e-14 0 0)
(1.46638e-14 0 0)
(-6.51109e-15 0 0)
(-3.64122e-14 0 0)
(-4.94233e-14 0 0)
(-2.08099e-14 0 0)
(7.3097e-15 0 0)
(1.57514e-15 0 0)
(-2.79014e-15 0 0)
(2.29805e-14 0 0)
(1.72336e-14 0 0)
(2.39971e-14 0 0)
(5.30354e-15 0 0)
(-3.54983e-14 0 0)
(-2.76148e-14 0 0)
(3.58478e-14 0 0)
(6.50117e-14 0 0)
(1.86385e-14 0 0)
(1.09932e-14 0 0)
(-2.28155e-14 0 0)
(3.86923e-14 0 0)
(8.21845e-15 0 0)
(3.45417e-14 0 0)
(1.57781e-12 0 0)
(1.26159e-07 0 0)
(0.0010765 0 0)
(0.280141 0 0)
(5.99615 0 0)
(27.0653 0 0)
(55.5315 0 0)
(82.2399 0 0)
(106.887 0 0)
(130.735 0 0)
(154.465 0 0)
(178.409 0 0)
(202.724 0 0)
(227.294 0 0)
(251.674 0 0)
(274.921 0 0)
(292.057 0 0)
(297.317 0 0)
(291.137 0 0)
(291.953 0 0)
(293.247 0 0)
(294.206 0 0)
(294.638 0 0)
(294.307 0 0)
(294.373 0 0)
(295.576 0 0)
(288.799 0 0)
(287.04 0 0)
(289.31 0 0)
(294.402 0 0)
(301.139 0 0)
(298.882 0 0)
(221.715 0 0)
(24.3811 0 0)
(0.025378 0 0)
(7.1775e-08 0 0)
(7.59573e-15 0 0)
(-4.79325e-14 0 0)
(-3.4254e-14 0 0)
(8.42494e-14 0 0)
(1.57427e-13 0 0)
(2.44032e-13 0 0)
(2.26626e-13 0 0)
(2.18636e-13 0 0)
(1.36674e-13 0 0)
(6.80165e-14 0 0)
(7.22959e-14 0 0)
(3.92611e-14 0 0)
(-9.05312e-14 0 0)
(-1.29315e-13 0 0)
(-1.01033e-13 0 0)
(-1.39988e-13 0 0)
(-1.48602e-13 0 0)
(-8.87016e-14 0 0)
(-1.03914e-13 0 0)
(-1.33635e-13 0 0)
(1.83795e-14 0 0)
(4.73923e-14 0 0)
(-5.74043e-14 0 0)
(-1.03266e-13 0 0)
(-1.66042e-13 0 0)
(-9.60062e-14 0 0)
(-3.08097e-14 0 0)
(-1.39959e-14 0 0)
(-4.01496e-14 0 0)
(-2.07122e-14 0 0)
)
;

boundaryField
{
    sides
    {
        type            zeroGradient;
    }
    empty
    {
        type            empty;
    }
}


// ************************************************************************* //
