/*--------------------------------*- C++ -*----------------------------------*\
| =========                 |                                                 |
| \\      /  F ield         | OpenFOAM: The Open Source CFD Toolbox           |
|  \\    /   O peration     | Version:  2512                                  |
|   \\  /    A nd           | Website:  www.openfoam.com                      |
|    \\/     M anipulation  |                                                 |
\*---------------------------------------------------------------------------*/
FoamFile
{
    version     2.0;
    format      ascii;
    arch        "LSB;label=32;scalar=64";
    class       volScalarField;
    location    "0.15";
    object      alphat;
}
// * * * * * * * * * * * * * * * * * * * * * * * * * * * * * * * * * * * * * //

dimensions      [1 -1 -1 0 0 0 0];

internalField   nonuniform List<scalar> 
16000
(
6.0832778e-07
1.2047282e-05
2.0641388e-05
2.5156703e-05
2.0082056e-05
2.7279199e-05
1.9383733e-05
2.6661668e-05
2.0752475e-05
2.8827996e-05
2.4143387e-05
2.8485094e-05
2.5883406e-05
2.6583364e-05
2.5655845e-05
2.5504009e-05
2.5229748e-05
2.5155648e-05
2.5169442e-05
2.5293411e-05
2.5519392e-05
2.5846116e-05
2.6270899e-05
2.6793877e-05
2.7417334e-05
2.8147886e-05
2.8994374e-05
2.9970953e-05
3.1094892e-05
3.2384846e-05
3.3861313e-05
3.5551535e-05
3.7490682e-05
3.9722117e-05
4.2299241e-05
4.5285829e-05
4.8757937e-05
5.2806346e-05
5.7543508e-05
6.3108892e-05
6.9666377e-05
7.740911e-05
8.6580682e-05
9.7479655e-05
0.00011046165
0.00012595348
0.00014448455
0.00016670032
0.00019338711
0.00022550365
0.00026422383
0.00031098825
0.00036755919
0.00043609707
0.00051925047
0.00062027844
0.00074320284
0.00089300613
0.0010758985
0.0011785442
0.0011793589
0.0011800696
0.001180686
0.0011811669
0.0011815096
0.0011817031
0.001181739
0.0011816069
0.0011812902
0.0011807635
0.0011799909
0.0011789109
0.0011774813
0.0011759809
0.0011747019
0.0011735847
0.0011725942
0.0011725392
0.0011711533
0.001170897
5.3853282e-07
1.1386942e-05
2.102872e-05
2.2781446e-05
1.809838e-05
2.4441963e-05
1.7190428e-05
2.3320694e-05
1.8319084e-05
2.5421659e-05
2.1840808e-05
2.5652761e-05
2.3649798e-05
2.4063104e-05
2.3339428e-05
2.3132815e-05
2.2906141e-05
2.2828828e-05
2.2845706e-05
2.2960475e-05
2.3170691e-05
2.347467e-05
2.3870338e-05
2.4357937e-05
2.4939195e-05
2.5620288e-05
2.640888e-05
2.7317724e-05
2.836315e-05
2.9563342e-05
3.0937385e-05
3.251018e-05
3.4314294e-05
3.6389889e-05
3.8786937e-05
4.1565416e-05
4.4797328e-05
4.8568004e-05
5.298222e-05
5.8172032e-05
6.4294947e-05
7.1532883e-05
8.0115319e-05
9.0326989e-05
0.00010250955
0.00011706882
0.00013450998
0.0001554511
0.00018064688
0.00021101825
0.00024769322
0.00029205998
0.00034581914
0.00041105993
0.00049034659
0.00058683829
0.00070443912
0.00084798237
0.0010234756
0.0011780596
0.001178873
0.001179534
0.0011801101
0.0011805541
0.001180863
0.0011810256
0.0011810327
0.0011808743
0.0011805337
0.0011799855
0.0011791977
0.0011781167
0.0011767029
0.001175277
0.0011740632
0.0011729692
0.0011720843
0.0011717552
0.0011710056
0.0011708937
4.5811149e-07
1.0883919e-05
1.9894353e-05
2.077427e-05
1.6202396e-05
2.1525408e-05
1.5290342e-05
2.0247841e-05
1.6454114e-05
2.2267165e-05
1.9889859e-05
2.2805365e-05
2.1397091e-05
2.1521639e-05
2.0967743e-05
2.0740516e-05
2.0552855e-05
2.0483985e-05
2.05065e-05
2.0617076e-05
2.0814887e-05
2.1098679e-05
2.1466699e-05
2.1919527e-05
2.2458519e-05
2.3089657e-05
2.3819829e-05
2.4660624e-05
2.5627288e-05
2.6737563e-05
2.8009598e-05
2.9466464e-05
3.1138586e-05
3.3063391e-05
3.5287835e-05
3.7868432e-05
4.0873624e-05
4.4384509e-05
4.8499468e-05
5.3343221e-05
5.9068123e-05
6.5847541e-05
7.3898984e-05
8.3494434e-05
9.4964584e-05
0.00010869848
0.00012518121
0.00014500817
0.00016890811
0.00019777163
0.00023268931
0.00027500662
0.00032637372
0.00038882179
0.00046484647
0.00055752486
0.00067066393
0.00080898201
0.00097833603
0.0011777289
0.0011785305
0.0011791266
0.0011796441
0.0011800338
0.0011802923
0.0011804082
0.0011803716
0.0011801726
0.0011797948
0.0011792123
0.0011783951
0.0011772996
0.0011758905
0.0011745466
0.0011734016
0.0011723687
0.0011715335
0.0011711354
0.0011707212
0.0011708668
4.1589911e-07
1.0509605e-05
1.8887119e-05
1.9914847e-05
1.4592562e-05
1.900204e-05
1.3617939e-05
1.7675904e-05
1.4801286e-05
1.959828e-05
1.8144284e-05
2.0297721e-05
1.9332147e-05
1.9246852e-05
1.882019e-05
1.8594367e-05
1.84404e-05
1.8384483e-05
1.8414478e-05
1.8523599e-05
1.8711822e-05
1.8978466e-05
1.9322166e-05
1.9743992e-05
2.0245094e-05
2.0831417e-05
2.1509352e-05
2.228957e-05
2.3186294e-05
2.4216903e-05
2.5398941e-05
2.6753929e-05
2.8310572e-05
3.0103958e-05
3.2178514e-05
3.4587794e-05
3.7397196e-05
4.0684539e-05
4.4543174e-05
4.9091051e-05
5.4476647e-05
6.0866939e-05
6.846994e-05
7.7546418e-05
8.8419318e-05
0.00010146493
0.00011715262
0.00013606042
0.00015889726
0.00018653181
0.00022002653
0.00026069601
0.00031015381
0.00037039032
0.00044385377
0.00053356517
0.00064326522
0.00077759675
0.00094232572
0.0011446069
0.0011784002
0.0011789153
0.0011793563
0.0011796749
0.0011798671
0.0011799212
0.0011798269
0.0011795738
0.0011791465
0.0011785187
0.0011776607
0.001176542
0.0011751287
0.0011738607
0.0011727818
0.0011718103
0.0011710014
0.001170552
0.00117038
0.0011704435
3.6597671e-07
1.0238576e-05
1.8036123e-05
1.9967436e-05
1.4426074e-05
1.6803779e-05
1.2156484e-05
1.5477652e-05
1.3385345e-05
1.7311504e-05
1.6602018e-05
1.8051121e-05
1.741645e-05
1.7189166e-05
1.6855893e-05
1.6645478e-05
1.6518159e-05
1.6474546e-05
1.650962e-05
1.661583e-05
1.6793513e-05
1.7042736e-05
1.7362553e-05
1.7754572e-05
1.8219889e-05
1.8764452e-05
1.9394287e-05
2.0119336e-05
2.0952801e-05
2.1911656e-05
2.3013053e-05
2.4277237e-05
2.5731498e-05
2.7408925e-05
2.935179e-05
3.1611099e-05
3.4249567e-05
3.7342404e-05
4.0979258e-05
4.5271702e-05
5.0365035e-05
5.6421559e-05
6.3641995e-05
7.2276701e-05
8.2642933e-05
9.5107245e-05
0.00011012625
0.00012826398
0.00015021327
0.00017682612
0.00020914234
0.00024845243
0.00029634089
0.0003547662
0.00042613996
0.00051343969
0.00062035482
0.00075146951
0.00091248098
0.0011104525
0.0011784432
0.0011788637
0.0011792122
0.0011794448
0.0011795563
0.0011795353
0.0011793707
0.0011790516
0.0011785637
0.0011778807
0.0011769715
0.0011758205
0.0011744114
0.0011732151
0.0011722016
0.0011712903
0.0011704985
0.0011700335
0.0011699952
0.0011697861
3.204924e-07
1.0055315e-05
1.7356353e-05
1.9649655e-05
1.4191343e-05
1.4894727e-05
1.1550554e-05
1.3663099e-05
1.262627e-05
1.5441278e-05
1.5261125e-05
1.6085356e-05
1.5670171e-05
1.5358316e-05
1.5083294e-05
1.4889991e-05
1.4779773e-05
1.4743949e-05
1.4780425e-05
1.4881826e-05
1.5048477e-05
1.5281038e-05
1.5578839e-05
1.5943756e-05
1.6377077e-05
1.6884632e-05
1.7472176e-05
1.8149096e-05
1.8927621e-05
1.9824294e-05
2.0856083e-05
2.2042216e-05
2.3408892e-05
2.4987567e-05
2.6818783e-05
2.8951484e-05
3.1446171e-05
3.4376049e-05
3.7828493e-05
4.1909663e-05
4.6762042e-05
5.254503e-05
5.9454832e-05
6.7732496e-05
7.7691823e-05
8.9693142e-05
0.00010418381
0.00012171817
0.00014297735
0.00016880331
0.00020022016
0.00023850301
0.00028521744
0.0003423019
0.0004121463
0.00049770233
0.000602629
0.00073147631
0.00088990554
0.0010849342
0.0011786539
0.0011789667
0.0011792085
0.0011793414
0.0011793594
0.0011792512
0.0011790049
0.0011786091
0.0011780503
0.0011773038
0.0011763348
0.0011751406
0.0011737524
0.0011726235
0.0011716734
0.0011708192
0.0011700465
0.0011695673
0.0011696224
0.0011692322
2.9729363e-07
9.9460582e-06
1.682433e-05
1.8527143e-05
1.4011255e-05
1.3151128e-05
1.1533129e-05
1.2574089e-05
1.2072588e-05
1.3722966e-05
1.4044611e-05
1.4345561e-05
1.4044175e-05
1.3696793e-05
1.345604e-05
1.3281264e-05
1.3184872e-05
1.3156594e-05
1.3195023e-05
1.3293363e-05
1.3451526e-05
1.3670696e-05
1.395047e-05
1.4208343e-05
1.4604536e-05
1.5071867e-05
1.5615415e-05
1.6243809e-05
1.6968113e-05
1.7804084e-05
1.8768473e-05
1.9879537e-05
2.1162486e-05
2.2647236e-05
2.4372756e-05
2.638613e-05
2.8745811e-05
3.1523055e-05
3.4803845e-05
3.8981953e-05
4.3642462e-05
4.9209155e-05
5.5876514e-05
6.3877689e-05
7.3524312e-05
8.5173894e-05
9.9267904e-05
0.00011635492
0.00013710809
0.00016236549
0.0001931416
0.00023070411
0.00027660865
0.0003327841
0.00040161164
0.00048603272
0.00058969411
0.00071713256
0.00087399946
0.001067304
0.0011790101
0.001179204
0.0011793271
0.0011793488
0.0011792626
0.0011790569
0.0011787194
0.001178238
0.0011775996
0.0011767825
0.0011757488
0.001174498
0.00117316
0.0011720944
0.0011712046
0.0011704056
0.0011696594
0.0011691642
0.0011692052
0.0011687621
2.6620014e-07
9.8822682e-06
1.6363052e-05
1.6800294e-05
1.2550454e-05
1.1451996e-05
9.7222554e-06
1.1167793e-05
1.021795e-05
1.2363293e-05
1.2814475e-05
1.2744852e-05
1.249234e-05
1.2156192e-05
1.1944821e-05
1.1794146e-05
1.1714572e-05
1.1697213e-05
1.1669555e-05
1.175089e-05
1.1891676e-05
1.2092167e-05
1.2350665e-05
1.2667001e-05
1.3046071e-05
1.349158e-05
1.4008775e-05
1.4606244e-05
1.5294487e-05
1.6088825e-05
1.7006282e-05
1.8064635e-05
1.928867e-05
2.0707381e-05
2.235887e-05
2.4289098e-05
2.6555352e-05
2.9227758e-05
3.2391928e-05
3.6152157e-05
4.0635629e-05
4.6003398e-05
5.2450334e-05
6.0710995e-05
7.013997e-05
8.1550148e-05
9.5380902e-05
0.00011217887
0.00013261313
0.00015752442
0.00018792417
0.00022508091
0.00027055024
0.00032626272
0.00039460473
0.00047852449
0.00058167657
0.00070860767
0.00086498656
0.0010578526
0.0011794912
0.0011795569
0.0011795517
0.0011794531
0.0011792539
0.0011789426
0.0011785063
0.0011779323
0.0011772072
0.0011763131
0.001175215
0.0011738966
0.0011726418
0.0011716361
0.0011708024
0.0011700573
0.0011693428
0.0011688293
0.0011687952
0.0011683412
2.3685411e-07
9.8426817e-06
1.5869526e-05
1.4711966e-05
1.0281582e-05
1.0202099e-05
8.0422666e-06
9.5913701e-06
9.7634282e-06
1.1079449e-05
1.1577909e-05
1.1265071e-05
1.1038109e-05
1.0738269e-05
1.0555563e-05
1.0357658e-05
1.0268896e-05
1.0247408e-05
1.0285851e-05
1.0380901e-05
1.0527427e-05
1.0729086e-05
1.0983307e-05
1.1290888e-05
1.1656627e-05
1.2085115e-05
1.2581714e-05
1.3155087e-05
1.381537e-05
1.457745e-05
1.5458747e-05
1.6476825e-05
1.7656378e-05
1.9025785e-05
2.0622657e-05
2.2492326e-05
2.4691427e-05
2.7289542e-05
3.0371761e-05
3.404168e-05
3.8427119e-05
4.3687124e-05
5.002005e-05
5.7656109e-05
6.6890299e-05
7.8089629e-05
9.2505046e-05
0.00010917009
0.00012947032
0.0001542554
0.00018454061
0.00022160372
0.00026701029
0.0003227041
0.00039109081
0.00047514288
0.00057854337
0.00070587286
0.0008628444
0.0010565638
0.001180072
0.0011800025
0.0011798624
0.0011796369
0.0011793183
0.0011788955
0.0011783551
0.0011776836
0.0011768669
0.0011758898
0.0011747317
0.0011733733
0.0011722035
0.0011712553
0.001170473
0.0011697804
0.0011691003
0.0011685601
0.0011684489
0.0011679668
2.1872423e-07
9.7981019e-06
1.4052466e-05
1.2866848e-05
8.3120758e-06
9.0817971e-06
7.2902172e-06
8.6388416e-06
9.0430819e-06
9.9136137e-06
1.0358919e-05
9.9240458e-06
9.7068048e-06
9.357009e-06
9.1654499e-06
9.0447156e-06
8.9918501e-06
8.99737e-06
9.053897e-06
9.1622229e-06
9.3163464e-06
9.5184961e-06
9.770295e-06
1.0071848e-05
1.0428256e-05
1.0844597e-05
1.1326436e-05
1.1882666e-05
1.2523228e-05
1.3262618e-05
1.4118712e-05
1.5109195e-05
1.6258903e-05
1.7595888e-05
1.9157607e-05
2.0989196e-05
2.314712e-05
2.5701008e-05
2.8736472e-05
3.2357792e-05
3.669315e-05
4.1901457e-05
4.8185053e-05
5.5774701e-05
6.4968601e-05
7.6136798e-05
8.9735586e-05
0.00010630088
0.00012766913
0.00015254926
0.00018298449
0.00022027013
0.0002659925
0.00032212072
0.00039109475
0.00047592978
0.00058035957
0.00070902493
0.00086771189
0.0010636278
0.0011807264
0.001180517
0.0011802381
0.0011798817
0.0011794401
0.0011789022
0.0011782543
0.0011774826
0.0011765727
0.0011755086
0.0011742892
0.0011729424
0.0011718501
0.0011709571
0.0011702215
0.0011695795
0.0011689384
0.0011683644
0.0011681563
0.0011676753
1.9942822e-07
9.7476103e-06
1.1145096e-05
1.0583063e-05
6.8855877e-06
8.0893501e-06
6.6588326e-06
7.7668834e-06
8.4655827e-06
8.8523469e-06
9.1647675e-06
8.6139868e-06
8.3478142e-06
8.1049882e-06
7.9641586e-06
7.8852225e-06
7.8624249e-06
7.8921484e-06
7.9665345e-06
8.0849903e-06
8.2460441e-06
8.451455e-06
8.7032539e-06
9.0022213e-06
9.3535882e-06
9.7629613e-06
1.0236257e-05
1.078266e-05
1.1412127e-05
1.2138823e-05
1.2914609e-05
1.387912e-05
1.500129e-05
1.6308789e-05
1.7838893e-05
1.9636567e-05
2.1758178e-05
2.4273464e-05
2.7268703e-05
3.0849179e-05
3.5144605e-05
4.0631867e-05
4.6930881e-05
5.4552161e-05
6.379728e-05
7.5040747e-05
8.8752429e-05
0.00010548161
0.00012592097
0.00015093412
0.00018324129
0.00022106929
0.00026749148
0.00032451517
0.00039463038
0.00048091483
0.00058717657
0.00071814551
0.00087971223
0.0010792194
0.0011814269
0.0011810754
0.0011806568
0.0011801683
0.0011796024
0.0011789483
0.001178192
0.0011773193
0.0011763166
0.0011751674
0.001173878
0.0011726031
0.0011715844
0.0011707451
0.0011700516
0.001169456
0.0011688577
0.0011682558
0.0011679433
0.0011675649
1.8359171e-07
9.6994893e-06
8.8036185e-06
9.0189812e-06
6.1725546e-06
7.1742131e-06
6.1184839e-06
7.0088933e-06
7.8789113e-06
7.8651579e-06
7.8699484e-06
7.4010812e-06
7.1846209e-06
7.0070319e-06
6.9095144e-06
6.8658324e-06
6.8708937e-06
6.9199987e-06
7.0097971e-06
7.1400602e-06
7.3093183e-06
7.5197987e-06
7.7745019e-06
8.0747499e-06
8.4259233e-06
8.7961382e-06
9.2596224e-06
9.7958824e-06
1.0414743e-05
1.1129901e-05
1.1957838e-05
1.2919971e-05
1.404049e-05
1.5347215e-05
1.6877879e-05
1.8678048e-05
2.0804953e-05
2.3329466e-05
2.6339842e-05
2.9943883e-05
3.4274711e-05
3.9498691e-05
4.5819706e-05
5.3482334e-05
6.2793769e-05
7.4780317e-05
8.8734313e-05
0.00010578004
0.00012662353
0.00015215629
0.00018346773
0.00022399134
0.00027150502
0.00032989579
0.00040172038
0.00049014047
0.00059906385
0.00073334105
0.00089900389
0.0011035633
0.0011821462
0.0011816529
0.0011810964
0.0011804772
0.0011797883
0.0011790191
0.0011781559
0.0011771835
0.0011760896
0.0011748658
0.0011735155
0.0011723544
0.0011714065
0.0011706201
0.0011699661
0.0011694101
0.0011688523
0.0011682427
0.0011678515
0.0011675315
1.6970536e-07
9.6280595e-06
7.013396e-06
7.935162e-06
5.511649e-06
6.356828e-06
5.6547788e-06
6.3367941e-06
7.1780345e-06
6.7442274e-06
6.7018997e-06
6.3416741e-06
6.1711349e-06
6.0466682e-06
5.9865643e-06
5.973366e-06
6.0023745e-06
6.0710585e-06
6.1762846e-06
6.318776e-06
6.4980185e-06
6.7163806e-06
6.9479372e-06
7.2471781e-06
7.5972869e-06
8.0032491e-06
8.4733126e-06
9.0163197e-06
9.6423313e-06
1.036528e-05
1.1201843e-05
1.2173225e-05
1.3305095e-05
1.4625764e-05
1.6173725e-05
1.7995577e-05
2.0150036e-05
2.2709693e-05
2.5765592e-05
2.9429219e-05
3.383733e-05
3.916036e-05
4.5612999e-05
5.3446395e-05
6.2977839e-05
7.4602023e-05
8.8809305e-05
0.00010619261
0.000128605
0.00015487874
0.00018711891
0.00022671817
0.00027802191
0.00033826174
0.00041237763
0.00050363865
0.00061607985
0.00075470599
0.0009257339
0.0011368791
0.0011828582
0.0011822257
0.0011815359
0.0011807899
0.0011799813
0.0011791003
0.0011781338
0.0011770658
0.0011758829
0.0011745954
0.0011732645
0.0011721926
0.0011713142
0.0011705808
0.0011699662
0.0011694416
0.0011689145
0.001168318
0.0011679029
0.0011676279
1.5747122e-07
9.5021162e-06
5.6409273e-06
6.954237e-06
4.919871e-06
5.6296177e-06
5.2630606e-06
5.6508423e-06
6.2945946e-06
5.7721561e-06
5.6791415e-06
5.4173233e-06
5.2899965e-06
5.2099891e-06
5.1831263e-06
5.1975187e-06
5.249172e-06
5.3366663e-06
5.4579295e-06
5.5931798e-06
5.7781172e-06
6.0023694e-06
6.2687299e-06
6.5807782e-06
6.943573e-06
7.3624994e-06
7.8456967e-06
8.4027011e-06
9.0438224e-06
9.7831983e-06
1.0637685e-05
1.1628815e-05
1.2725212e-05
1.4059933e-05
1.5625104e-05
1.7468328e-05
1.9650039e-05
2.2244602e-05
2.5345894e-05
2.9069661e-05
3.3557438e-05
3.9280923e-05
4.5924088e-05
5.3999808e-05
6.3836728e-05
7.5841399e-05
9.052829e-05
0.00010851728
0.00013056768
0.00015906892
0.00019250732
0.00023359781
0.00028411941
0.00034959564
0.00042659689
0.00052142045
0.00063826002
0.00078230857
0.00096001863
0.0011793601
0.0011835386
0.0011827722
0.0011819558
0.0011810889
0.0011801663
0.0011791786
0.0011781135
0.001176957
0.0011756944
0.0011743392
0.0011731067
0.0011721158
0.0011713025
0.0011706229
0.0011700503
0.0011695506
0.0011690393
0.0011684748
0.0011681082
0.0011678526
1.4673883e-07
9.2873015e-06
4.6093132e-06
6.0786298e-06
4.3916063e-06
4.9850252e-06
4.9234467e-06
4.9045988e-06
5.4044483e-06
4.9079376e-06
4.7953939e-06
4.6146302e-06
4.5281437e-06
4.4865029e-06
4.4898773e-06
4.5299389e-06
4.6035455e-06
4.6915063e-06
4.8237476e-06
4.9911284e-06
5.1948393e-06
5.4367992e-06
5.7205292e-06
6.0497877e-06
6.4302326e-06
6.8675149e-06
7.369839e-06
7.9234558e-06
8.5799305e-06
9.3356465e-06
1.0207565e-05
1.1217312e-05
1.2391365e-05
1.3763015e-05
1.5372023e-05
1.7267672e-05
1.9513259e-05
2.2186097e-05
2.5383964e-05
2.9228648e-05
3.3868394e-05
3.9489989e-05
4.6319389e-05
5.4634988e-05
6.4779865e-05
7.7824181e-05
9.3113278e-05
0.00011185331
0.00013484175
0.0001630624
0.00019958544
0.0002424909
0.00029526501
0.00036019765
0.00044433533
0.00054345291
0.00066558794
0.00081615652
0.0010018981
0.0011850316
0.0011841656
0.0011832736
0.0011823391
0.0011813593
0.0011803298
0.0011792424
0.001178085
0.0011768461
0.0011755242
0.0011741572
0.0011730354
0.0011721189
0.0011713655
0.0011707396
0.0011702133
0.0011697356
0.0011692254
0.0011686982
0.0011684383
0.0011682369
1.3739759e-07
8.9854635e-06
3.961459e-06
5.3011257e-06
3.9224322e-06
4.4150344e-06
4.3841397e-06
4.2307357e-06
4.5467493e-06
4.1457469e-06
4.0397597e-06
3.9236396e-06
3.8754424e-06
3.8679056e-06
3.899363e-06
3.9494459e-06
4.0379043e-06
4.1602705e-06
4.3158601e-06
4.5051255e-06
4.7298912e-06
4.992599e-06
5.2971941e-06
5.6477212e-06
6.036612e-06
6.4925791e-06
7.014141e-06
7.6108254e-06
8.2946261e-06
9.0798568e-06
9.9839765e-06
1.1029559e-05
1.2244245e-05
1.3662685e-05
1.5327472e-05
1.728981e-05
1.9616514e-05
2.2388683e-05
2.5708289e-05
2.9704555e-05
3.453188e-05
4.0386722e-05
4.7510036e-05
5.6193039e-05
6.6798582e-05
7.9771965e-05
9.6510863e-05
0.0001161467
0.00014024408
0.00016984796
0.00020621752
0.00025331747
0.00030872956
0.0003769316
0.00046089024
0.00056962817
0.0006979579
0.00085615347
0.0010512823
0.0011856982
0.001184721
0.0011837146
0.0011826722
0.0011815889
0.0011804609
0.0011792818
0.0011780409
0.0011767278
0.0011753546
0.0011740761
0.0011730428
0.0011721954
0.0011714969
0.0011709225
0.0011704455
0.0011699914
0.0011694765
0.0011689848
0.0011688158
0.0011687311
1.2949071e-07
8.1147241e-06
3.4939744e-06
4.6066558e-06
3.5070468e-06
3.745719e-06
3.9091084e-06
3.613586e-06
3.7700717e-06
3.4842648e-06
3.4011231e-06
3.3365012e-06
3.3236443e-06
3.3472971e-06
3.3883608e-06
3.4720943e-06
3.5885361e-06
3.7364985e-06
3.9162246e-06
4.1289128e-06
4.3769457e-06
4.6630416e-06
4.9820387e-06
5.3539505e-06
5.7779375e-06
6.2606796e-06
6.8102246e-06
7.4364691e-06
8.1516891e-06
8.971144e-06
9.9128972e-06
1.1000543e-05
1.2263041e-05
1.3736853e-05
1.5401051e-05
1.7425541e-05
1.9828118e-05
2.2694246e-05
2.6287688e-05
3.0463838e-05
3.5513918e-05
4.1643985e-05
4.9111309e-05
5.8223069e-05
6.9361022e-05
8.2997854e-05
9.9713607e-05
0.00012022031
0.00014669183
0.00017787655
0.00021620543
0.00026333884
0.00032436776
0.00039629379
0.00048485461
0.00059972615
0.00073512677
0.0009020418
0.0011079021
0.0011862741
0.0011851933
0.0011840841
0.0011829447
0.0011817686
0.0011805517
0.0011792893
0.0011779743
0.0011766064
0.001175223
0.0011740739
0.0011731219
0.0011723375
0.0011716905
0.0011711636
0.001170734
0.0011703068
0.0011697922
0.0011693528
0.0011693
0.001169329
1.2326587e-07
5.9182993e-06
3.0956261e-06
3.9780567e-06
3.1487486e-06
3.1275558e-06
3.4345028e-06
3.0539451e-06
3.1023015e-06
2.9196294e-06
2.8674888e-06
2.8454908e-06
2.8568827e-06
2.9015635e-06
2.9828416e-06
3.0962814e-06
3.239848e-06
3.4134172e-06
3.6180219e-06
3.8553207e-06
4.1221641e-06
4.4313081e-06
4.7829298e-06
5.1817852e-06
5.6335708e-06
6.1452117e-06
6.7251462e-06
7.3836819e-06
8.1335118e-06
8.9708916e-06
9.9478951e-06
1.1074443e-05
1.2380732e-05
1.3904596e-05
1.5693348e-05
1.7806133e-05
2.031606e-05
2.3314626e-05
2.6915338e-05
3.1258406e-05
3.6517894e-05
4.3217161e-05
5.1073031e-05
6.0669102e-05
7.2407296e-05
8.6787333e-05
0.00010442399
0.00012607426
0.0001540704
0.00018701581
0.00022752556
0.00027735331
0.00034195751
0.00041802385
0.00051170967
0.00062713417
0.00077666891
0.00095334024
0.0011712227
0.0011867527
0.0011855758
0.0011843753
0.00118315
0.0011818926
0.0011805974
0.0011792616
0.0011778823
0.0011764729
0.0011751891
0.0011741377
0.0011732626
0.0011725356
0.0011719389
0.0011714552
0.0011710652
0.0011706668
0.0011701711
0.0011697938
0.0011698535
0.0011699222
1.1838701e-07
4.4270729e-06
2.7392118e-06
3.3964433e-06
2.6918924e-06
2.6080461e-06
2.9336727e-06
2.5554673e-06
2.5472852e-06
2.4458895e-06
2.4287955e-06
2.4362842e-06
2.4804743e-06
2.5609112e-06
2.6730933e-06
2.8144277e-06
2.9841889e-06
3.1829879e-06
3.4092534e-06
3.6700136e-06
3.9664708e-06
4.3019625e-06
4.6805589e-06
5.1072197e-06
5.5879377e-06
6.1299471e-06
6.7420419e-06
7.4238296e-06
8.206456e-06
9.0986273e-06
1.0120766e-05
1.1298245e-05
1.2663043e-05
1.4255317e-05
1.6125399e-05
1.8336e-05
2.096505e-05
2.4109477e-05
2.7889848e-05
3.2455728e-05
3.7992421e-05
4.4728371e-05
5.3339948e-05
6.346665e-05
7.5862367e-05
9.1055913e-05
0.00010969847
0.00013259343
0.00016073166
0.0001970872
0.00023996588
0.00029272345
0.00035766639
0.0004417478
0.00054100412
0.00066332047
0.00082193275
0.0010092818
0.0011884002
0.0011871318
0.0011858676
0.0011845868
0.0011832859
0.0011819585
0.0011805968
0.0011791981
0.0011777755
0.0011763721
0.0011752188
0.0011742579
0.0011734546
0.0011727801
0.0011722301
0.0011717902
0.001171429
0.0011710504
0.0011705933
0.0011702859
0.0011704319
0.0011705297
1.1322515e-07
3.9415239e-06
2.3598256e-06
2.8585382e-06
2.3192804e-06
2.173312e-06
2.4167667e-06
2.1196612e-06
2.0985712e-06
2.0597793e-06
2.073385e-06
2.1168866e-06
2.1982018e-06
2.3102181e-06
2.4502396e-06
2.6172699e-06
2.8115959e-06
3.0322251e-06
3.284739e-06
3.5704477e-06
3.8923183e-06
4.2539542e-06
4.6596725e-06
5.114638e-06
5.6250626e-06
6.1984557e-06
6.8363842e-06
7.5618799e-06
8.3836382e-06
9.3187794e-06
1.0388845e-05
1.1620729e-05
1.3048256e-05
1.4713942e-05
1.6671283e-05
1.8987238e-05
2.174491e-05
2.5047259e-05
2.9022301e-05
3.382823e-05
3.9661375e-05
4.7102869e-05
5.584721e-05
6.6539533e-05
7.9635882e-05
9.5695624e-05
0.00011540807
0.00013962354
0.00017096047
0.00020785902
0.00025324498
0.00030910403
0.00037788347
0.00046695612
0.00057212742
0.00070177398
0.00086999208
0.0010687409
0.0011887474
0.0011874118
0.0011860728
0.0011847222
0.0011833549
0.0011819669
0.001180552
0.0011791029
0.0011776432
0.0011763575
0.0011752976
0.0011744193
0.0011736852
0.0011730661
0.0011725567
0.0011721578
0.0011718202
0.0011714587
0.0011710465
0.0011708201
0.0011710288
0.0011711263
1.0978778e-07
3.4314488e-06
2.0341616e-06
2.3116923e-06
2.0140962e-06
1.8024422e-06
1.9381303e-06
1.7525464e-06
1.7488645e-06
1.7601299e-06
1.8048929e-06
1.886929e-06
1.9994552e-06
2.1384327e-06
2.3027941e-06
2.4927845e-06
2.708318e-06
2.9530632e-06
3.2288588e-06
3.5384307e-06
3.8850431e-06
4.2725188e-06
4.7053432e-06
5.1888313e-06
5.7293647e-06
6.3303801e-06
7.0077607e-06
7.7703362e-06
8.6324143e-06
9.6119562e-06
1.0731765e-05
1.2020333e-05
1.3513521e-05
1.5256345e-05
1.7305397e-05
1.9731821e-05
2.2624516e-05
2.6092579e-05
3.0272204e-05
3.5331013e-05
4.1749583e-05
4.9298982e-05
5.8517442e-05
6.9797193e-05
8.361918e-05
0.00010057593
0.00012139647
0.00014698064
0.00018004617
0.00021903391
0.00026700501
0.00032606101
0.00039879995
0.00049296952
0.00060425551
0.00074149553
0.00091960658
0.0011302042
0.0011889978
0.0011876013
0.0011861988
0.0011847896
0.0011833655
0.001181923
0.001180464
0.0011789988
0.001177564
0.0011763956
0.0011754182
0.0011746082
0.0011739352
0.0011733751
0.0011729045
0.0011725439
0.0011722267
0.00117188
0.0011715151
0.0011713722
0.0011716241
0.0011716988
1.0834292e-07
2.899128e-06
1.7528172e-06
1.7852023e-06
1.7356358e-06
1.4867257e-06
1.5486056e-06
1.4618038e-06
1.4900543e-06
1.5369628e-06
1.6205648e-06
1.7329636e-06
1.8706132e-06
2.031926e-06
2.2171839e-06
2.4275586e-06
2.6640269e-06
2.9301111e-06
3.2279477e-06
3.5605294e-06
3.9312946e-06
4.3442093e-06
4.8038828e-06
5.3157501e-06
5.8863215e-06
6.5235241e-06
7.2371432e-06
8.039354e-06
8.9351246e-06
9.9596481e-06
1.1129954e-05
1.2476231e-05
1.4036517e-05
1.5858551e-05
1.8002072e-05
2.0625418e-05
2.3678914e-05
2.7343376e-05
3.1763898e-05
3.7119411e-05
4.3630249e-05
5.1567326e-05
6.1265314e-05
7.3136192e-05
8.7687435e-05
0.00010554465
0.00012747784
0.00015578534
0.00018918094
0.00023025672
0.0002808091
0.00034305825
0.00042372421
0.00051894903
0.0006363599
0.0007812281
0.00096920322
0.0011906536
0.0011891668
0.0011877145
0.0011862575
0.0011847988
0.0011833305
0.0011818446
0.001180339
0.0011788485
0.0011775562
0.0011764746
0.0011755722
0.0011748186
0.0011741937
0.0011736975
0.0011732603
0.0011729327
0.001172637
0.0011723114
0.0011719974
0.0011719249
0.0011721978
0.0011722365
1.0995912e-07
2.3678886e-06
1.5189768e-06
1.3809753e-06
1.4549159e-06
1.2232472e-06
1.2641765e-06
1.2494077e-06
1.3106918e-06
1.3919165e-06
1.5036656e-06
1.6389826e-06
1.7965586e-06
1.9765264e-06
2.1801126e-06
2.4090688e-06
2.6651699e-06
2.9514538e-06
3.2704662e-06
3.6253321e-06
4.0195915e-06
4.4573029e-06
4.9431775e-06
5.4827699e-06
6.0827419e-06
6.7512195e-06
7.4982692e-06
8.3364925e-06
9.2817655e-06
1.0354174e-05
1.157911e-05
1.2988736e-05
1.4623569e-05
1.6534543e-05
1.8785396e-05
2.1455606e-05
2.4644031e-05
2.8473613e-05
3.3096424e-05
3.8700648e-05
4.5518635e-05
5.3836143e-05
6.4002586e-05
7.6450818e-05
9.1712559e-05
0.00011135769
0.00013453892
0.00016302186
0.00019804336
0.00024113174
0.00029417371
0.00036287706
0.00044397148
0.00054393676
0.0006672564
0.00082746278
0.001016924
0.0011907943
0.0011892717
0.0011877706
0.0011862675
0.0011847635
0.0011832565
0.0011817461
0.0011802374
0.0011787717
0.0011775847
0.0011765834
0.0011757486
0.0011750507
0.0011744714
0.0011739892
0.0011736143
0.0011733099
0.0011730354
0.0011727402
0.0011724835
0.0011724643
0.001172729
0.0011727369
1.1585379e-07
1.8732641e-06
1.3312519e-06
1.0864343e-06
1.3018227e-06
1.0037338e-06
1.0709725e-06
1.1084147e-06
1.1962003e-06
1.304554e-06
1.4366947e-06
1.5895934e-06
1.7636599e-06
1.9600363e-06
2.1804395e-06
2.4268792e-06
2.7016423e-06
3.007101e-06
3.3463607e-06
3.7225159e-06
4.1391819e-06
4.6005021e-06
5.1112908e-06
5.6772324e-06
6.3051556e-06
7.0034048e-06
7.7823392e-06
8.6550133e-06
9.6379258e-06
1.0752042e-05
1.2023895e-05
1.3487175e-05
1.5184364e-05
1.7168894e-05
1.9507642e-05
2.2284029e-05
2.5601708e-05
2.9589115e-05
3.4405035e-05
4.0245464e-05
4.7675345e-05
5.6416643e-05
6.7100248e-05
8.018002e-05
9.6213814e-05
0.00011588884
0.00014005246
0.0001697499
0.00020626753
0.000253549
0.00030928431
0.0003779197
0.00046250021
0.00056680746
0.0007023289
0.00086251715
0.0010605002
0.001190878
0.0011893241
0.0011877877
0.001186251
0.0011847113
0.0011831647
0.0011816156
0.0011800974
0.0011787635
0.0011776473
0.0011767117
0.001175929
0.0011752758
0.0011747494
0.0011742938
0.0011739504
0.001173667
0.0011734087
0.0011731466
0.0011729496
0.0011729813
0.0011732339
0.001173197
1.2676057e-07
1.4981136e-06
1.1725492e-06
9.4024065e-07
9.5453177e-07
8.7990623e-07
9.4242861e-07
1.0220971e-06
1.1300494e-06
1.2573631e-06
1.4048552e-06
1.5723279e-06
1.761008e-06
1.9724192e-06
2.20842e-06
2.4710854e-06
2.7627375e-06
3.0859654e-06
3.4436713e-06
3.8391244e-06
4.2760386e-06
4.7586793e-06
5.2920123e-06
5.8819163e-06
6.5354776e-06
7.2588003e-06
8.0663738e-06
8.9700539e-06
9.9958831e-06
1.1151709e-05
1.2471389e-05
1.399028e-05
1.5752924e-05
1.7815269e-05
2.0247283e-05
2.3136117e-05
2.6589964e-05
3.0742787e-05
3.5760071e-05
4.1845967e-05
4.9252067e-05
5.8288251e-05
6.9335849e-05
8.2862034e-05
9.9444223e-05
0.00011979283
0.0001460725
0.00017702335
0.00021507218
0.00026187997
0.00031950073
0.00039048199
0.00047798433
0.00059150605
0.00072576621
0.00089165527
0.0010968438
0.0011909303
0.0011893462
0.0011877792
0.0011862184
0.0011846601
0.0011831008
0.0011815454
0.0011800378
0.0011787958
0.001177744
0.0011768622
0.001176122
0.0011755036
0.0011750185
0.0011745821
0.0011742623
0.0011739992
0.0011737532
0.0011735222
0.0011733737
0.0011734351
0.0011736659
0.0011736198
1.4865659e-07
1.5077727e-06
1.0120465e-06
7.1802181e-07
7.7899655e-07
7.8600386e-07
8.6975214e-07
9.7180216e-07
1.0958261e-06
1.2375908e-06
1.3982746e-06
1.5787855e-06
1.7806254e-06
2.0054288e-06
2.2550828e-06
2.5316909e-06
2.8376093e-06
3.1754762e-06
3.5482544e-06
3.9592847e-06
4.4123584e-06
4.9118216e-06
5.4627235e-06
6.0710296e-06
6.743924e-06
7.4902231e-06
8.3209239e-06
9.2499049e-06
1.0294815e-05
1.147813e-05
1.2828426e-05
1.4381966e-05
1.6184502e-05
1.8293511e-05
2.0780845e-05
2.3735962e-05
2.726985e-05
3.1519802e-05
3.6655265e-05
4.2885036e-05
5.046625e-05
6.014323e-05
7.1538112e-05
8.5484826e-05
0.00010257768
0.00012354749
0.00014929597
0.00018093626
0.00021984393
0.00026771849
0.0003266694
0.00040299839
0.00049322585
0.00060455391
0.00074205898
0.00091208613
0.0011225686
0.0011909959
0.0011893804
0.0011877802
0.0011861894
0.0011846055
0.001183029
0.0011814773
0.0011800422
0.0011788608
0.0011778624
0.0011770252
0.0011763213
0.0011757306
0.0011752499
0.0011748646
0.0011745371
0.0011743021
0.0011740678
0.0011738672
0.001173753
0.0011738164
0.0011740039
0.0011739622
1.4497102e-07
9.2216968e-07
8.2859071e-07
6.1120912e-07
6.6866242e-07
7.2897435e-07
8.3095109e-07
9.4956294e-07
1.0864835e-06
1.2407032e-06
1.4134754e-06
1.6059948e-06
1.8197918e-06
2.0565691e-06
2.318255e-06
2.6070107e-06
2.9252599e-06
3.2756764e-06
3.6613597e-06
4.0857095e-06
4.5526009e-06
5.0664645e-06
5.6324368e-06
6.2565741e-06
6.946161e-06
7.7101315e-06
8.559628e-06
9.5087249e-06
1.0583967e-05
1.1794811e-05
1.3176353e-05
1.4765783e-05
1.6609948e-05
1.8767654e-05
2.131234e-05
2.4335383e-05
2.7950083e-05
3.2296539e-05
3.7547653e-05
4.3916465e-05
5.1665178e-05
6.1116155e-05
7.266546e-05
8.6801751e-05
0.00010412597
0.00012537915
0.00015147568
0.00018515573
0.00022488233
0.00027375451
0.00033392726
0.00040807322
0.00049951781