/*--------------------------------*- C++ -*----------------------------------*\
| =========                 |                                                 |
| \\      /  F ield         | OpenFOAM: The Open Source CFD Toolbox           |
|  \\    /   O peration     | Version:  2512                                  |
|   \\  /    A nd           | Website:  www.openfoam.com                      |
|    \\/     M anipulation  |                                                 |
\*---------------------------------------------------------------------------*/
FoamFile
{
    version     2.0;
    format      ascii;
    arch        "LSB;label=32;scalar=64";
    class       volScalarField;
    location    "0.15";
    object      k;
}
// * * * * * * * * * * * * * * * * * * * * * * * * * * * * * * * * * * * * * //

dimensions      [0 2 -2 0 0 0 0];

internalField   nonuniform List<scalar> 
16000
(
0.060762621
0.021379831
0.022399057
0.016523291
0.013996476
0.012672873
0.011883259
0.011409684
0.011092921
0.010877935
0.010719444
0.010601417
0.010509181
0.010436154
0.010377373
0.010329887
0.010291068
0.010259184
0.010233202
0.010211721
0.010194305
0.010180011
0.010168544
0.010159419
0.010152287
0.010146863
0.010142946
0.010140367
0.010138982
0.010138663
0.010139283
0.01014074
0.010142951
0.010145845
0.010149362
0.010153442
0.010158028
0.010163062
0.010168487
0.010174249
0.010180285
0.010186527
0.010192912
0.01019937
0.010205829
0.010212213
0.010218462
0.010224527
0.010230365
0.010235938
0.010241207
0.01024613
0.01025066
0.010254749
0.010258351
0.010261421
0.010263912
0.010265777
0.010266965
0.010267423
0.010267085
0.010265872
0.010263703
0.010260465
0.010256009
0.010250173
0.010242806
0.010233744
0.010222746
0.010209462
0.01019337
0.010173524
0.010149246
0.01012486
0.010105053
0.010089052
0.010076559
0.010083722
0.010060113
0.010083467
0.055460732
0.020031917
0.020943532
0.015975757
0.013653969
0.012472794
0.011722159
0.011297787
0.010993021
0.010795512
0.010647001
0.010537705
0.010451844
0.010384278
0.010329943
0.0102863
0.010250838
0.010221812
0.01019845
0.010179248
0.010163955
0.010151571
0.010141868
0.010134389
0.010128804
0.010124826
0.010122265
0.010120957
0.010120765
0.010121566
0.010123241
0.010125685
0.010128813
0.010132554
0.010136846
0.01014163
0.01014685
0.010152447
0.010158366
0.010164552
0.010170946
0.010177484
0.010184102
0.010190736
0.010197318
0.010203773
0.010210042
0.010216076
0.010221835
0.010227286
0.010232395
0.010237127
0.010241441
0.010245293
0.01024864
0.010251442
0.010253654
0.010255233
0.010256128
0.010256289
0.010255659
0.010254166
0.010251736
0.010248266
0.010243611
0.010237603
0.010230082
0.01022088
0.010209757
0.010196362
0.010180238
0.010160574
0.010136736
0.010113682
0.01009499
0.010079429
0.010069208
0.010070231
0.010059676
0.010083345
0.048583008
0.019066708
0.019611141
0.015415029
0.013303405
0.012247321
0.011554986
0.01117188
0.010891102
0.010711669
0.010574267
0.010474138
0.01039515
0.010333343
0.010283774
0.010244206
0.010212337
0.01018636
0.010165801
0.010149032
0.010136003
0.010125659
0.010117836
0.010112101
0.010108151
0.010105702
0.010104573
0.010104605
0.010105667
0.010107643
0.010110416
0.010113883
0.010117957
0.010122566
0.010127645
0.010133136
0.010138982
0.010145126
0.010151509
0.01015808
0.010164782
0.010171552
0.01017833
0.010185055
0.010191665
0.010198089
0.010204268
0.010210156
0.010215719
0.010220926
0.010225751
0.010230164
0.010234133
0.010237618
0.010240581
0.010242984
0.01024479
0.010245955
0.010246433
0.010246175
0.010245128
0.010243229
0.010240411
0.010236579
0.010231594
0.010225289
0.010217491
0.01020803
0.010196669
0.010183048
0.01016675
0.01014712
0.010123604
0.01010203
0.010084536
0.010070109
0.010060973
0.010059808
0.010058039
0.010081802
0.04528565
0.018414714
0.018474587
0.014912126
0.012986208
0.012043887
0.011402315
0.011057959
0.010797709
0.010634706
0.0105079
0.010416238
0.010343808
0.01028745
0.010242435
0.01020675
0.010178351
0.010155299
0.010137462
0.01012305
0.010112226
0.010103874
0.010097891
0.010093862
0.010091514
0.010090565
0.01009084
0.010092186
0.010094472
0.010097589
0.010101423
0.01010587
0.010110842
0.010116262
0.010122066
0.010128193
0.010134586
0.010141188
0.010147941
0.010154793
0.010161693
0.01016858
0.010175397
0.010182089
0.010188598
0.010194861
0.010200821
0.010206436
0.010211674
0.010216512
0.010220929
0.010224904
0.01022841
0.010231416
0.010233886
0.010235788
0.010237088
0.010237745
0.010237716
0.010236953
0.010235407
0.010233021
0.010229735
0.010225463
0.010220073
0.010213395
0.010205251
0.010195463
0.010183804
0.010169906
0.010153367
0.01013374
0.010110506
0.010090405
0.01007418
0.010060988
0.010052386
0.010050319
0.010053674
0.010074184
0.040846426
0.018026365
0.01753604
0.014446846
0.012690663
0.011851585
0.01125913
0.010950478
0.010710649
0.010563051
0.010446649
0.010363062
0.010297054
0.010245988
0.01020544
0.010173547
0.010148583
0.010128408
0.01011328
0.010101208
0.010092585
0.010086231
0.010082103
0.010079782
0.010079039
0.010079595
0.010081279
0.010083937
0.010087442
0.010091686
0.010096558
0.010101953
0.01010778
0.01011396
0.010120425
0.010127114
0.010133969
0.010140933
0.010147951
0.01015497
0.010161944
0.010168818
0.010175539
0.010182056
0.010188322
0.010194279
0.010199876
0.010205074
0.010209847
0.010214178
0.010218053
0.010221459
0.010224376
0.01022678
0.010228641
0.01022993
0.010230616
0.010230663
0.010230029
0.010228668
0.010226533
0.010223572
0.010219731
0.010214932
0.01020905
0.010201918
0.010193348
0.010183157
0.010171128
0.010156895
0.010140036
0.010120352
0.010097594
0.010078965
0.010064074
0.010052111
0.010043913
0.010041774
0.010048599
0.010062356
0.03660842
0.01786402
0.016836078
0.014020453
0.012419001
0.011672716
0.011126848
0.010850965
0.010630768
0.010497356
0.010391056
0.010315083
0.010255289
0.010209328
0.010173131
0.010144916
0.010123341
0.010105989
0.010093548
0.010083812
0.010077378
0.010073032
0.010070801
0.010070171
0.010071021
0.010073081
0.010076165
0.010080122
0.010084823
0.010090159
0.010096022
0.010102306
0.010108917
0.010115773
0.010122804
0.010129946
0.010137142
0.010144337
0.010151479
0.010158519
0.010165412
0.010172114
0.010178577
0.010184758
0.010190617
0.010196107
0.010201184
0.010205814
0.010209977
0.010213662
0.010216862
0.010219571
0.010221779
0.010223467
0.010224612
0.010225186
0.010225162
0.01022451
0.010223187
0.010221149
0.010218348
0.010214738
0.01021027
0.010204872
0.010198426
0.01019077
0.01018171
0.010171053
0.010158592
0.010143985
0.010126758
0.010106922
0.010084961
0.010067807
0.010054294
0.010043541
0.010035795
0.010033818
0.010042809
0.01005241
0.034711545
0.017875285
0.016337864
0.013629205
0.012168591
0.011506574
0.011005121
0.010759153
0.010557896
0.010437493
0.010340978
0.010272242
0.010218491
0.010177502
0.010145591
0.010120989
0.010102794
0.01008826
0.010078498
0.010071156
0.010066894
0.010064616
0.010064437
0.010065427
0.010067815
0.010071378
0.010075851
0.010081084
0.010086943
0.010093321
0.010100107
0.010107196
0.010114492
0.010121908
0.010129375
0.010136829
0.010144212
0.010151475
0.010158569
0.01016545
0.010172081
0.010178426
0.010184447
0.010190109
0.010195383
0.010200234
0.010204625
0.01020853
0.010211933
0.010214832
0.010217225
0.010219115
0.010220498
0.010221362
0.010221689
0.010221455
0.010220635
0.0102192
0.010217112
0.010214324
0.010210791
0.010206467
0.010201308
0.010195246
0.010188173
0.01017993
0.010170321
0.010159144
0.010146195
0.010131177
0.010113573
0.010093437
0.010072778
0.010057089
0.010044961
0.010035407
0.010028228
0.010026441
0.010035888
0.01004259
0.031738964
0.017987788
0.015917053
0.01327082
0.011937802
0.011352998
0.010893394
0.010674944
0.010491678
0.010383404
0.010296417
0.010234651
0.010186824
0.010150733
0.010123086
0.010102067
0.01008725
0.010075579
0.010068425
0.010063686
0.010061459
0.01006146
0.01006273
0.010065696
0.010069797
0.010074844
0.010080675
0.010087134
0.010094086
0.010101419
0.010109023
0.010116792
0.010124628
0.010132446
0.010140175
0.010147753
0.010155126
0.010162251
0.010169085
0.010175596
0.010181752
0.01018753
0.010192905
0.010197852
0.010202352
0.010206384
0.010209921
0.010212944
0.010215444
0.010217423
0.010218888
0.010219845
0.010220299
0.010220245
0.010219666
0.010218544
0.010216854
0.010214569
0.010211652
0.010208057
0.010203737
0.010198646
0.010192743
0.010185967
0.010178214
0.010169333
0.010159129
0.01014739
0.010133906
0.010118438
0.010100516
0.010079957
0.010061145
0.010046917
0.010036153
0.010027791
0.010021298
0.0100197
0.010028443
0.010033824
0.028808063
0.018143355
0.015396845
0.012942186
0.011725353
0.011211137
0.010791205
0.010597891
0.010432456
0.01033548
0.010257721
0.010202706
0.010160686
0.010129432
0.010106039
0.010088599
0.010077075
0.010068433
0.010063515
0.010061583
0.010060079
0.0100636
0.010067042
0.010071699
0.010077377
0.010083868
0.010090991
0.010098589
0.010106524
0.010114677
0.010122941
0.010131212
0.010139393
0.010147398
0.010155162
0.010162626
0.010169746
0.010176484
0.010182813
0.010188708
0.010194153
0.010199135
0.010203646
0.010207672
0.010211207
0.010214242
0.010216764
0.010218758
0.010220222
0.010221162
0.01022159
0.010221518
0.010220956
0.010219903
0.010218348
0.010216273
0.010213655
0.010210466
0.010206671
0.010202224
0.010197075
0.010191178
0.010184493
0.010176962
0.010168489
0.01015893
0.010148093
0.010135763
0.010121715
0.010105746
0.010087609
0.010067082
0.01005017
0.010037398
0.010027952
0.010020764
0.010015067
0.010013627
0.010021373
0.010025357
0.027113573
0.018270089
0.014724717
0.012640663
0.011531459
0.011081937
0.010699878
0.010528949
0.01038079
0.010294157
0.010225314
0.010176869
0.010140548
0.010114084
0.010094943
0.010081134
0.010072474
0.01006742
0.010063167
0.010065861
0.010068421
0.010072043
0.010077366
0.010083749
0.010090963
0.010098807
0.010107105
0.010115697
0.01012444
0.010133215
0.010141915
0.010150441
0.010158702
0.010166617
0.010174129
0.010181188
0.010187763
0.010193829
0.010199372
0.010204385
0.010208865
0.010212816
0.010216242
0.010219147
0.010221535
0.01022341
0.010224768
0.010225604
0.010225919
0.010225722
0.010225027
0.010223851
0.010222206
0.010220096
0.010217513
0.010214439
0.010210851
0.010206722
0.010202017
0.010196688
0.010190683
0.010183954
0.010176461
0.010168149
0.010158928
0.010148664
0.010137168
0.010124227
0.010109613
0.010093106
0.010074756
0.010055067
0.010039949
0.010028615
0.01002042
0.010014374
0.010009586
0.010008244
0.010014563
0.010017551
0.02517221
0.018357574
0.014174671
0.012364617
0.011356816
0.010965033
0.010619425
0.010468375
0.010336702
0.01025981
0.010199597
0.010157613
0.010126921
0.010105235
0.010090343
0.010080357
0.010072781
0.01007324
0.010074197
0.010076483
0.010081043
0.010087144
0.010094292
0.010102294
0.010110918
0.010119958
0.010129238
0.010138597
0.010147892
0.010157005
0.010165833
0.010174288
0.010182289
0.010189768
0.010196682
0.010202997
0.010208696
0.010213776
0.010218237
0.010222092
0.010225355
0.010228045
0.010230182
0.010231782
0.010232863
0.010233438
0.010233513
0.010233089
0.010232169
0.010230762
0.010228885
0.010226555
0.010223784
0.010220581
0.010216939
0.010212841
0.010208262
0.010203173
0.010197539
0.010191313
0.01018444
0.010176867
0.010168555
0.01015945
0.010149467
0.010138481
0.010126314
0.010112751
0.010097584
0.010080575
0.01006188
0.010043949
0.010030561
0.010020632
0.010013609
0.010008644
0.010004847
0.010003658
0.010008342
0.010011055
0.023571567
0.018432402
0.013681144
0.012114175
0.011201295
0.010860271
0.01054931
0.010416447
0.010300637
0.010232936
0.010181091
0.010145515
0.010120414
0.010103529
0.010092862
0.010087126
0.01008545
0.01008584
0.010089164
0.010094583
0.010101398
0.010109365
0.010118223
0.010127678
0.0101375
0.01014748
0.010157446
0.01016724
0.010176725
0.010185789
0.010194343
0.010202314
0.010209641
0.010216279
0.010222201
0.010227398
0.010231874
0.010235644
0.010238733
0.010241168
0.010242981
0.010244209
0.010244882
0.010245029
0.010244678
0.010243848
0.010242555
0.010240802
0.010238593
0.010235938
0.010232848
0.010229341
0.010225429
0.010221121
0.010216411
0.010211282
0.010205708
0.010199658
0.010193095
0.010185972
0.010178232
0.010169819
0.010160689
0.01015079
0.010140043
0.010128334
0.010115495
0.010101312
0.010085598
0.010068234
0.010049323
0.01003377
0.010022054
0.010013489
0.010007558
0.010003576
0.010000779
0.0099999097
0.01000315
0.010005156
0.022149825
0.018433558
0.013265247
0.011888503
0.011064044
0.010768077
0.010490175
0.010373753
0.010272913
0.01021409
0.010170411
0.010141251
0.010121749
0.010109718
0.01010334
0.010101266
0.010102544
0.010106695
0.010112801
0.010120481
0.010129386
0.010139152
0.010149477
0.010160093
0.010170771
0.010181304
0.010191526
0.010201294
0.010210485
0.010219007
0.01022679
0.010233789
0.010239973
0.010245323
0.010249842
0.010253543
0.010256457
0.01025862
0.010260074
0.010260866
0.010261043
0.01026065
0.010259732
0.010258324
0.01025646
0.010254166
0.010251459
0.010248348
0.010244834
0.010240922
0.01023662
0.010231942
0.010226898
0.010221495
0.010215729
0.010209584
0.010203029
0.010196032
0.010188553
0.010180548
0.010171956
0.010162717
0.010152784
0.010142105
0.010130606
0.010118181
0.010104683
0.010089903
0.010073642
0.010056061
0.010038129
0.010024549
0.010014449
0.010007197
0.010002291
0.0099991751
0.009997294
0.0099969069
0.0099992057
0.010000648
0.020877843
0.018265744
0.012879351
0.011686167
0.010944028
0.010688131
0.010442132
0.01034046
0.0102541
0.010203997
0.010168356
0.010145659
0.010131793
0.010124667
0.010122623
0.010124438
0.010129198
0.010136179
0.010144874
0.010154793
0.010165525
0.010176735
0.010188131
0.010199451
0.010210473
0.010221006
0.010230902
0.010240045
0.010248341
0.010255732
0.010262181
0.010267678
0.010272229
0.01027585
0.010278572
0.010280437
0.010281497
0.010281807
0.010281427
0.010280415
0.010278828
0.010276721
0.010274141
0.010271131
0.010267726
0.010263953
0.010259831
0.010255369
0.010250567
0.010245423
0.01023994
0.010234122
0.010227979
0.010221515
0.010214724
0.010207592
0.010200086
0.010192171
0.010183805
0.010174942
0.010165524
0.010155488
0.010144778
0.010133343
0.010121116
0.010107996
0.010093854
0.010078525
0.010061807
0.010043899
0.010028106
0.010016333
0.010007741
0.010001741
0.0099978131
0.0099954527
0.0099943282
0.0099945531
0.0099965108
0.0099973442
0.019742975
0.017818173
0.012532073
0.01150641
0.01084173
0.010620965
0.010405463
0.010317463
0.010244976
0.010203616
0.010175938
0.010159778
0.010151595
0.010149409
0.010151684
0.01015726
0.010165272
0.010175063
0.010186059
0.010197799
0.010209895
0.01022201
0.010233865
0.010245218
0.010255875
0.010265679
0.01027452
0.010282324
0.010289046
0.010294671
0.010299209
0.010302688
0.010305154
0.010306658
0.01030726
0.010307024
0.01030602
0.010304316
0.010301982
0.010299083
0.01029568
0.010291831
0.010287583
0.01028298
0.010278056
0.010272837
0.010267339
0.01026157
0.010255527
0.010249204
0.010242593
0.010235692
0.010228504
0.010221028
0.010213261
0.010205186
0.010196772
0.010187979
0.010178764
0.01016908
0.010158872
0.010148075
0.010136626
0.01012447
0.010111548
0.010097767
0.010083005
0.01006715
0.010050215
0.010032772
0.01001925
0.010009129
0.01000191
0.0099970803
0.0099940995
0.0099924177
0.0099918462
0.0099926841
0.0099950162
0.0099957835
0.018728307
0.017009335
0.01222178
0.011348304
0.010756872
0.010566941
0.010380829
0.010305711
0.01024666
0.010214159
0.01019442
0.010184852
0.010182354
0.010185053
0.010191517
0.010200647
0.010211601
0.010223724
0.010236474
0.010249394
0.010262111
0.010274313
0.01028576
0.010296253
0.010305653
0.010313862
0.010320827
0.010326534
0.010330997
0.010334255
0.010336362
0.010337391
0.010337418
0.010336524
0.010334791
0.010332298
0.010329123
0.010325343
0.010321028
0.010316244
0.010311049
0.010305498
0.010299637
0.010293503
0.010287127
0.010280533
0.010273732
0.010266729
0.010259519
0.010252089
0.010244424
0.010236513
0.01022835
0.010219929
0.010211245
0.010202282
0.010193012
0.010183392
0.010173376
0.010162916
0.010151959
0.010140445
0.010128302
0.010115469
0.010101892
0.010087494
0.010072168
0.010055829
0.010038714
0.010023191
0.010011539
0.010002928
0.0099969341
0.009993163
0.0099910879
0.0099900557
0.0099898828
0.0099911834
0.0099938836
0.009995471
0.017821212
0.01607037
0.011951153
0.011211827
0.010689044
0.010527094
0.010369319
0.010306702
0.010260642
0.010237133
0.010225277
0.010222262
0.010225316
0.010232666
0.010242956
0.010255135
0.010268382
0.010282064
0.010295662
0.010308756
0.010321022
0.010332212
0.010342152
0.010350728
0.010357876
0.01036358
0.010367863
0.010370775
0.010372391
0.0103728
0.010372096
0.010370383
0.010367762
0.010364331
0.010360182
0.010355399
0.010350063
0.010344245
0.010338012
0.010331423
0.01032453
0.010317378
0.010310007
0.010302448
0.010294725
0.010286857
0.010278852
0.01027071
0.010262422
0.010253973
0.01024534
0.010236504
0.010227447
0.010218158
0.010208626
0.010198839
0.01018877
0.01017838
0.010167618
0.010156432
0.010144774
0.010132588
0.010119804
0.010106347
0.010092161
0.010077191
0.010061367
0.010044753
0.01002799
0.010014914
0.010004956
0.0099977007
0.0099927895
0.0099899421
0.0099886885
0.0099882963
0.0099884717
0.0099902111
0.0099935696
0.0099963005
0.017010843
0.01530422
0.011720887
0.011097352
0.01063912
0.010502868
0.010372496
0.01032217
0.010288675
0.010274214
0.010270078
0.010273381
0.010281591
0.010293021
0.010306375
0.010320655
0.010335082
0.010349072
0.010362184
0.010374082
0.010384541
0.010393417
0.010400644
0.010406214
0.010410161
0.010412555
0.010413491
0.010413083
0.010411451
0.010408723
0.010405019
0.010400457
0.010395148
0.010389193
0.010382683
0.010375699
0.010368311
0.010360584
0.010352572
0.010344322
0.010335877
0.010327271
0.010318533
0.010309686
0.010300747
0.010291728
0.010282633
0.010273459
0.010264195
0.01025482
0.010245311
0.010235638
0.010225775
0.010215702
0.010205402
0.01019486
0.010184054
0.010172951
0.0101615
0.010149646
0.010137338
0.010124527
0.010111152
0.010097132
0.010082395
0.01006691
0.010050658
0.010033893
0.010019056
0.010007841
0.0099994308
0.0099933947
0.0099894459
0.0099873829
0.0099868098
0.0099870202
0.009987622
0.0099897693
0.0099937192
0.0099970669
0.016287389
0.014619096
0.011526542
0.011005525
0.010608175
0.01049609
0.010392114
0.010354134
0.010332744
0.010327191
0.010330338
0.010339314
0.010351779
0.01036613
0.010381166
0.010395982
0.010409909
0.010422488
0.010433419
0.010442515
0.010449693
0.010454953
0.010458352
0.010459991
0.010459999
0.010458521
0.010455707
0.01045171
0.01044668
0.010440757
0.01043407
0.010426735
0.010418858
0.01041053
0.010401833
0.010392833
0.010383587
0.010374144
0.010364545
0.010354825
0.01034501
0.010335125
0.010325186
0.010315207
0.010305197
0.010295162
0.010285101
0.010275008
0.010264869
0.010254665
0.010244368
0.010233946
0.010223366
0.010212595
0.010201609
0.010190387
0.01017891
0.010167151
0.010155068
0.010142606
0.010129704
0.010116315
0.010102393
0.010087869
0.01007265
0.010056715
0.010040278
0.010024018
0.010011496
0.01000192
0.0099948662
0.0099899235
0.0099868433
0.0099854525
0.0099853936
0.0099860488
0.0099871369
0.0099896582
0.0099939023
0.0099977458
0.015643543
0.01402724
0.011367028
0.010937237
0.010597376
0.010509163
0.010430491
0.010404998
0.010395015
0.010397702
0.010407042
0.010420263
0.010435241
0.010450529
0.010465108
0.010478274
0.010489568
0.010498735
0.010505681
0.010510407
0.010512997
0.010513589
0.010512354
0.010509481
0.010505163
0.010499588
0.010492935
0.010485369
0.01047704
0.010468083
0.010458615
0.010448738
0.01043854
0.010428095
0.010417465
0.0104067
0.01039584
0.010384917
0.010373956
0.010362976
0.010351991
0.010341014
0.010330049
0.010319101
0.010308171
0.010297258
0.010286356
0.010275457
0.010264547
0.010253605
0.010242604
0.010231513
0.010220294
0.010208908
0.010197319
0.010185498
0.010173421
0.010161066
0.010148403
0.010135386
0.010121953
0.010108043
0.010093609
0.010078624
0.010063022
0.010046721
0.010030104
0.010015985
0.010005165
0.009997036
0.0099911545
0.0099871759
0.0099848788
0.0099840797
0.0099844238
0.0099854006
0.009986894
0.0099898139
0.0099941828
0.0099982718
0.015073188
0.013519763
0.011243819
0.010895349
0.010608654
0.010545529
0.010490595
0.010477208
0.01047713
0.010486291
0.010499579
0.010514484
0.010529212
0.010542628
0.010554032
0.010563036
0.010569472
0.010573342
0.010574771
0.010573942
0.010571079
0.010566421
0.010560211
0.010552681
0.010544047
0.010534503
0.010524222
0.010513356
0.010502036
0.010490373
0.01047846
0.010466377
0.010454185
0.010441938
0.010429675
0.010417427
0.010405218
0.010393063
0.010380971
0.010368948
0.010356995
0.010345112
0.010333295
0.010321539
0.010309838
0.010298183
0.010286564
0.01027497
0.010263386
0.010251792
0.010240165
0.010228474
0.010216683
0.010204751
0.010192636
0.010180297
0.010167699
0.010154815
0.010141624
0.010128095
0.010114185
0.010099822
0.010084935
0.010069491
0.010053556
0.010037317
0.01002136
0.010009291
0.0099999725
0.0099930693
0.0099881868
0.0099850367
0.0099834256
0.0099831435
0.009983811
0.0099850008
0.0099867876
0.0099900456
0.0099945037
0.0099986524
0.01457462
0.01308915
0.011159006
0.010884711
0.010646057
0.010608932
0.01057495
0.010571805
0.010578602
0.010590875
0.010604479
0.0106174
0.010628371
0.010636729
0.010642198
0.010644758
0.010644546
0.010641798
0.010636806
0.010629877
0.010621307
0.010611379
0.010600347
0.010588437
0.010575847
0.010562745
0.010549276
0.010535557
0.010521687
0.010507744
0.010493794
0.010479886
0.01046606
0.010452343
0.010438756
0.01042531
0.010412014
0.010398867
0.010385866
0.010373006
0.010360275
0.010347664
0.010335159
0.010322748
0.010310416
0.01029815
0.010285934
0.010273754
0.010261592
0.01024943
0.010237247
0.010225017
0.010212708
0.010200284
0.010187701
0.010174913
0.010161874
0.010148545
0.010134892
0.010120894
0.010106532
0.010091769
0.010076534
0.01006073
0.010044355
0.010027964
0.010014365
0.010003779
0.0099957665
0.0099899009
0.0099858605
0.0099834044
0.0099823624
0.0099825102
0.0099834607
0.0099848507
0.0099868821
0.009990371
0.0099949062
0.0099989615
0.014152856
0.01273379
0.011115587
0.010909925
0.010736768
0.010701448
0.010683448
0.010686328
0.010695072
0.010705585
0.010714908
0.010721739
0.010725484
0.010726009
0.010723458
0.010718119
0.010710351
0.010700528
0.010689014
0.010676147
0.010662225
0.010647503
0.010632201
0.0106165
0.010600553
0.010584483
0.010568388
0.010552347
0.010536421
0.010520657
0.010505088
0.010489741
0.010474628
0.01045976
0.010445138
0.010430758
0.010416614
0.010402694
0.010388986
0.010375472
0.010362135
0.010348954
0.010335911
0.010322984
0.010310154
0.010297401
0.010284704
0.010272044
0.010259402
0.010246758
0.010234093
0.010221383
0.010208603
0.010195723
0.010182706
0.010169512
0.010156093
0.010142398
0.010128377
0.01011399
0.010099211
0.010084031
0.010068457
0.010052512
0.0100363
0.010020471
0.010008618
0.0099993492
0.0099924084
0.0099874124
0.009984077
0.0099821952
0.0099816019
0.0099820672
0.0099832478
0.0099848607
0.0099871559
0.0099907798
0.009995254
0.0099990783
0.013818915
0.01245459
0.011117693
0.010969562
0.010843289
0.010820765
0.010810887
0.010813319
0.01081777
0.010821139
0.010821733
0.010819046
0.010813108
0.010804213
0.010792776
0.010779246
0.010764053
0.010747585
0.010730177
0.010712115
0.010693633
0.010674923
0.010656137
0.010637395
0.010618791
0.010600397
0.010582266
0.010564438
0.01054694
0.010529788
0.010512992
0.010496552
0.010480467
0.010464728
0.010449323
0.010434236
0.010419451
0.010404947
0.010390702
0.010376693
0.010362896
0.010349284
0.010335832
0.010322515
0.010309306
0.01029618
0.010283113
0.01027008
0.010257058
0.010244026
0.010230961
0.010217842
0.010204645
0.010191348
0.010177922
0.010164336
0.010150553
0.010136529
0.010122213
0.01010755
0.010092484
0.010076964
0.010060972
0.010044604
0.010028394
0.010014698
0.010004038
0.0099958703
0.0099897974
0.0099855046
0.0099827414
0.0099813248
0.009981083
0.0099817595
0.009983078
0.0099848777
0.0099874344
0.0099912177
0.0099956707
0.0099992757
0.013596354
0.012253429
0.011167653
0.011069127
0.010977234
0.010956625
0.010945996
0.01094092
0.0109352
0.010927074
0.010915974
0.010902021
0.010885624
0.010867264
0.010847413
0.010826495
0.010804871
0.010782838
0.010760632
0.010738439
0.010716403
0.010694633
0.010673209
0.010652189
0.010631612
0.010611505
0.01059188
0.010572746
0.0105541
0.010535936
0.010518244
0.010501008
0.01048421
0.010467832
0.010451851
0.010436243
0.010420984
0.010406046
0.010391404
0.010377027
0.010362888
0.010348957
0.010335205
0.010321601
0.010308116
0.010294721
0.010281387
0.010268085
0.010254787
0.010241468
0.010228102
0.010214665
0.010201133
0.010187482
0.01017369
0.010159733
0.010145584
0.010131213
0.010116587
0.010101667
0.010086408
0.010070765
0.010054717
0.010038367
0.010022411
0.010010178
0.010000548
0.0099932439
0.0099878634
0.0099841204
0.0099817945
0.0099807198
0.0099807243
0.0099815737
0.009982945
0.0099848496
0.0099875433
0.0099913739
0.0099957867
0.009999274
0.013432359
0.012130381
0.011267036
0.01119497
0.011121378
0.01109516
0.01107455
0.011056106
0.011036395
0.011014797
0.010991385
0.010966517
0.010940628
0.010914119
0.010887332
0.010860538
0.010833946
0.010807715
0.010781959
0.010756759
0.010732168
0.01070822
0.010684932
0.01066231
0.010640351
0.010619045
0.010598377
0.010578328
0.010558877
0.01054
0.010521672
0.010503868
0.01048656
0.010469719
0.010453318
0.010437327
0.010421717
0.010406457
0.010391517
0.010376866
0.010362472
0.010348304
0.01033433
0.010320519
0.010306838
0.010293256
0.01027974
0.01026626
0.010252783
0.010239281
0.010225722
0.010212077
0.01019832
0.010184422
0.010170359
0.010156105
0.010141638
0.010126931
0.010111963
0.010096709
0.010081142
0.010065247
0.010049057
0.01003286
0.010018076
0.010006801
0.0099979954
0.0099913611
0.0099865248
0.0099832115
0.0099812216
0.0099804285
0.0099804337
0.0099814987
0.0099828882
0.0099848545
0.0099875584
0.0099912447
0.0099954721
0.009998999
0.013359972
0.012084064
0.011417128
0.011330223
0.011259436
0.011218254
0.011182003
0.011147787
0.011113806
0.011079789
0.011045833
0.011012143
0.010978928
0.010946358
0.01091456
0.01088362
0.01085359
0.010824496
0.010796348
0.010769138
0.01074285
0.010717461
0.010692942
0.010669261
0.010646386
0.010624281
0.010602913
0.010582245
0.010562243
0.010542873
0.010524101
0.010505893
0.010488216
0.010471037
0.010454323
0.010438043
0.010422164
0.010406653
0.01039148
0.010376611
0.010362014
0.010347657
0.010333509
0.010319536
0.010305706
0.010291988
0.010278347
0.010264752
0.01025117
0.010237567
0.010223911
0.010210169
0.010196308
0.010182297
0.010168104
0.010153699
0.010139053
0.010124138
0.010108929
0.010093404
0.010077549
0.010061372
0.010044972
0.010028836
0.010015103
0.010004478
0.0099962586
0.0099901036
0.0099856696
0.0099826884
0.0099809565
0.0099803182
0.0099802371
0.009981532
0.0099829676
0.0099850124
0.0099877189
0.009991211
0.009995157
0.0099986859
0.013350381
0.012056523
0.011556585
0.011451086
0.011369118
0.011310686
0.011258745
0.011210902
0.011165616
0.011122389
0.011080989
0.011041304
0.011003257
0.010966782
0.010931814
0.010898287
0.010866133
0.010835287
0.01080568
0.010777249
0.010749931
0.010723666
0.010698396
0.010674066
0.010650624
0.01062802
0.010606208
0.010585142
0.01056478
0.010545081
0.010526006
0.010507516
0.010489576
0.010472149
0.010455202
0.0104387
0.01042261
0.010406898
0.010391533
0.010376483
0.010361715
0.010347196
0.010332897
0.010318784
0.010304826
0.010290992
0.010277249
0.010263567
0.010249911
0.010236251
0.010222554
0.010208785
0.010194912
0.010180899
0.010166713
0.010152319
0.010137679
0.01012276
0.010107526
0.010091945
0.01007599
0.010059663
0.010043085
0.010026862
0.01001363
0.010003327
0.00999539
0.0099894702
0.0099852387
0.009982432
0.0099808444
0.0099803222
0.0099804936
0.0099815897
0.0099831272
0.0099852235
0.009987909
0.0099912089
0.0099948961
0.0099984414
0.013409398
0.012075273
0.011656137
0.011534335
0.011439791
0.011367677
0.011304685
0.011247975
0.01119572
0.011147033
0.011101351
0.011058291
0.011017568
0.010978955
0.010942266
0.010907342
0.010874045
0.010842254
0.01081186
0.010782767
0.010754887
0.010728139
0.01070245
0.010677754
0.010653987
0.010631091
0.010609014
0.010587705
0.010567117
0.010547206
0.010527929
0.010509247
0.010491122
0.010473517
0.010456396
0.010439723
0.010423467
0.010407592
0.010392067
0.01037686
0.010361938
0.010347271
0.010332826
0.010318574
0.010304484
0.010290525
0.010276666
0.010262877
0.010249129
0.010235389
0.010221628
0.010207815
0.010193918
0.010179906
0.010165746
0.010151406
0.010136854
0.010122056
0.010106979
0.010091592
0.01007587
0.01005981
0.010043509
0.010027484
0.010014001
0.010003599
0.0099955784
0.0099896128
0.0099853682
0.0099825742
0.0099809935
0.0099804153
0.0099805007
0.009981699
0.0099832617
0.0099853978
0.0099880561
0.0099912053
0.0099946995
0.009998275
0.013506033
0.012118808
0.011705187
0.011574544
0.011471852
0.011393594
0.011325805
0.011265596
0.011210698
0.011160021
0.011112814
0.011068573
0.011026923
0.010987572
0.010950285
0.010914869
0.01088116
0.010849016
0.010818315
0.010788949
0.010760822
0.010733847
0.010707946
0.010683047
0.010659087
0.010636004
0.010613743
0.010592254
0.010571487
0.010551398
0.010531944
0.010513084
0.01049478
0.010476995
0.010459694
0.01044284
0.010426401
0.010410343
0.010394634
0.010379242
0.010364135
0.010349281
0.010334651
0.010320213
0.010305937
0.010291793
0.010277749
0.010263777
0.010249847
0.010235927
0.010221988
0.010207999
0.010193929
0.010179748
0.010165423
0.010150923
0.010136215
0.010121267
0.010106046
0.010090523
0.010074673
0.010058502
0.010042132
0.010026174
0.010013276
0.010003169
0.0099953755
0.0099895489
0.0099853861
0.0099826337
0.0099810672
0.009980489
0.0099804295
0.009981741
0.009983286
0.0099854377
0.0099880729
0.009991144
0.0099945552
0.0099981786
92.366615
453.64337
141.39754
12.276498
0.27161077
0.021621789
0.0206166
0.020005154
0.019321912
0.018145562
0.016926251
0.015859488
0.015007812
0.014445345
0.014046891
0.013674634
0.013309268
0.012980588
0.012702411
0.012469433
0.012271624
0.01210117
0.011952813
0.011822729
0.011707889
0.011605821
0.01151454
0.011432455
0.011358319
0.011291148
0.011230126