/*--------------------------------*- C++ -*----------------------------------*\
| =========                 |                                                 |
| \\      /  F ield         | OpenFOAM: The Open Source CFD Toolbox           |
|  \\    /   O peration     | Version:  2512                                  |
|   \\  /    A nd           | Website:  www.openfoam.com                      |
|    \\/     M anipulation  |                                                 |
\*---------------------------------------------------------------------------*/
FoamFile
{
    version     2.0;
    format      ascii;
    arch        "LSB;label=32;scalar=64";
    class       volScalarField;
    location    "0.15";
    object      Ma;
}
// * * * * * * * * * * * * * * * * * * * * * * * * * * * * * * * * * * * * * //

dimensions      [0 0 0 0 0 0 0];

internalField   nonuniform List<scalar> 
16000
(
0.62557327
0.74327476
0.69787546
0.72315887
0.70773557
0.71508148
0.70921738
0.71092823
0.70824582
0.7078926
0.70627521
0.70518821
0.70379518
0.70244483
0.7010051
0.69951882
0.69797242
0.69636847
0.69470564
0.69298359
0.691202
0.68936075
0.68745999
0.6855001
0.68348181
0.68140613
0.67927446
0.67708856
0.6748506
0.67256317
0.67022929
0.66785239
0.66543636
0.66298552
0.66050456
0.65799858
0.65547302
0.6529336
0.65038632
0.64783734
0.64529294
0.64275944
0.64024314
0.63775022
0.63528666
0.63285819
0.6304702
0.62812769
0.62583521
0.62359682
0.62141606
0.61929593
0.61723886
0.6152467
0.61332072
0.6114616
0.6096694
0.60794361
0.60628315
0.60468628
0.60315064
0.60167358
0.60025213
0.59888263
0.59756071
0.59628115
0.59503797
0.59382469
0.59263471
0.59146124
0.59029698
0.5891337
0.58796314
0.58677961
0.58558091
0.58437397
0.5830389
0.58214117
0.57989216
0.58011446
0.63002309
0.74847908
0.70136538
0.7277999
0.71152657
0.71936934
0.71303268
0.71488083
0.71200676
0.71158612
0.70988099
0.70867759
0.70719434
0.70572893
0.70418086
0.70257749
0.70091164
0.69918379
0.69739339
0.69554011
0.6936239
0.69164495
0.68960374
0.68750104
0.68533803
0.68311622
0.68083756
0.6785044
0.67611957
0.67368633
0.67120844
0.66869009
0.66613595
0.66355111
0.66094108
0.65831171
0.6556692
0.65301996
0.6503706
0.64772784
0.64509841
0.64248897
0.63990603
0.63735586
0.6348444
0.63237722
0.62995942
0.62759558
0.62528975
0.62304539
0.62086539
0.61875201
0.61670693
0.61473126
0.61282551
0.61098962
0.60922298
0.60752441
0.60589224
0.60432423
0.60281752
0.60136901
0.59997537
0.59863272
0.59733655
0.59608157
0.59486174
0.5936705
0.59250108
0.59134664
0.59019978
0.58905209
0.58789501
0.58672282
0.58553197
0.58431059
0.58307209
0.58191707
0.58014894
0.57980853
0.63421297
0.75323454
0.70487173
0.73182135
0.71512006
0.72304922
0.71656765
0.71829164
0.71537008
0.71478661
0.71301581
0.71167163
0.71008426
0.7084906
0.70681732
0.70508198
0.70328036
0.70141257
0.69947833
0.69747763
0.69541077
0.69327829
0.69108114
0.68882058
0.68649833
0.68411652
0.68167777
0.67918518
0.67664234
0.67405339
0.67142297
0.6687562
0.66605869
0.6633365
0.66059606
0.65784414
0.65508777
0.65233413
0.6495905
0.64686414
0.64416218
0.64149154
0.63885884
0.63627029
0.63373161
0.63124799
0.62882402
0.62646364
0.62417016
0.6219462
0.61979374
0.61771411
0.61570804
0.61377567
0.6119166
0.61012989
0.60841408
0.60676726
0.60518705
0.60367061
0.60221456
0.60081532
0.59946917
0.59817196
0.596919
0.59570497
0.59452379
0.5933689
0.5922335
0.59111073
0.58999323
0.58887265
0.58774044
0.58659017
0.58541618
0.58421253
0.58300617
0.58176462
0.58023973
0.57958513
0.63801301
0.75755918
0.70788934
0.73527872
0.71822284
0.7262647
0.7196194
0.72121132
0.71822757
0.71746647
0.71561545
0.71411585
0.71240738
0.71067041
0.7088556
0.70697261
0.70501966
0.70299663
0.70090364
0.69874099
0.69650936
0.69420974
0.69184357
0.68941273
0.68691958
0.68436701
0.68175848
0.679098
0.67639017
0.67364015
0.67085367
0.66803698
0.6651968
0.66234029
0.65947492
0.65660844
0.65374875
0.65090378
0.6480814
0.6452893
0.64253487
0.63982509
0.63716644
0.63456482
0.63202545
0.62955287
0.62715086
0.62482245
0.62256991
0.62039479
0.61829795
0.61627959
0.6143393
0.61247614
0.61068868
0.60897502
0.60733284
0.60575941
0.60425167
0.60280617
0.60141904
0.60008624
0.59880368
0.59756698
0.59637134
0.59521141
0.59408115
0.59297405
0.59188333
0.59080217
0.58972333
0.58863861
0.58753942
0.58641828
0.58526919
0.58409319
0.58290528
0.58164036
0.58026795
0.5794044
0.64141467
0.7613888
0.71064018
0.7382091
0.72070851
0.72890477
0.72215121
0.72354867
0.72052192
0.7195493
0.71760929
0.71593693
0.71408954
0.71219435
0.71022147
0.70817524
0.70605513
0.70386112
0.70159358
0.69925317
0.69684102
0.6943587
0.69180833
0.68919257
0.6865147
0.68377862
0.6809889
0.67815076
0.67527005
0.67235325
0.66940743
0.66644017
0.66345949
0.66047377
0.65749162
0.6545218
0.65157303
0.64865391
0.64577274
0.64293746
0.64015543
0.63743341
0.63477743
0.63219271
0.62968364
0.62725374
0.62490566
0.62264116
0.62046124
0.6183661
0.61635526
0.61442758
0.61258142
0.61081465
0.60912471
0.60750872
0.60596346
0.60448544
0.6030709
0.60171584
0.60041592
0.59916672
0.59796384
0.5968027
0.59567843
0.59458573
0.59351867
0.59247084
0.59143559
0.59040618
0.5893756
0.58833592
0.58727845
0.58619491
0.58508033
0.58393899
0.58277188
0.58152166
0.58024425
0.57925577
0.64438421
0.76465016
0.71292777
0.74066181
0.72287778
0.73090498
0.72403178
0.72524191
0.72216312
0.72097276
0.71893298
0.71707732
0.71507496
0.71300852
0.71086194
0.70863648
0.70633225
0.70394954
0.70148918
0.69895245
0.69634123
0.69365797
0.69090581
0.68808855
0.68521074
0.68227767
0.67929535
0.67627054
0.67321067
0.67012383
0.66701864
0.66390422
0.66079003
0.65768572
0.65460104
0.65154565
0.64852896
0.64555999
0.64264722
0.63979843
0.6370206
0.63431985
0.63170129
0.62916905
0.62672625
0.62437497
0.62211636
0.61995063
0.61787717
0.61589462
0.61400098
0.6121937
0.61046978
0.60882585
0.60725829
0.60576321
0.60433658
0.60297417
0.60167166
0.60042454
0.59922814
0.59807772
0.59696866
0.59589627
0.59485569
0.5938417
0.59284859
0.59187014
0.59089984
0.58993117
0.58895738
0.58797091
0.58696294
0.58592486
0.584853
0.58375185
0.58261331
0.58139617
0.58019175
0.57910989
0.64690989
0.76733606
0.71477618
0.74261419
0.72458056
0.7322429
0.72544136
0.72627377
0.7232127
0.72172454
0.71956678
0.71751583
0.71533739
0.71308023
0.7107374
0.70830922
0.70579649
0.70320026
0.70052223
0.69776469
0.69493066
0.69202387
0.68904888
0.68601102
0.68291654
0.67977245
0.67658663
0.67336772
0.67012504
0.66686852
0.66360858
0.66035595
0.65712156
0.65391631
0.65075091
0.6476357
0.64458044
0.64159418
0.63868509
0.63586032
0.63312591
0.63048675
0.62794654
0.62550777
0.62317179
0.62093886
0.61880822
0.61677824
0.61484648
0.61300987
0.6112648
0.60960723
0.60803282
0.60653705
0.60511523
0.60376264
0.60247451
0.60124603
0.60007241
0.5989488
0.59787028
0.59683195
0.59582906
0.59485693
0.59391077
0.59298554
0.59207579
0.59117559
0.59027868
0.58937877
0.5884695
0.58754365
0.58659244
0.58560739
0.58458577
0.58353013
0.5824281
0.58125884
0.58011525
0.57896391
0.64902907
0.76947259
0.71621729
0.74410314
0.72586525
0.73323307
0.72630909
0.72706232
0.7235497
0.72181453
0.71950418
0.71723098
0.71484125
0.712361
0.70978856
0.70712467
0.70437093
0.70152945
0.69860312
0.69559557
0.69251132
0.68935578
0.68613537
0.68285743
0.67953027
0.67616314
0.67276614
0.66935013
0.66592662
0.66250758
0.6591053
0.65573214
0.65240034
0.64912181
0.64590787
0.64276908
0.63971501
0.63675412
0.63389358
0.63113921
0.62849543
0.62596524
0.62355026
0.62125081
0.61906598
0.61699379
0.61503133
0.61317487
0.61142005
0.60976201
0.60819554
0.6067152
0.60531543
0.60399065
0.60273533
0.60154404
0.60041147
0.5993324
0.59830174
0.59731448
0.59636559
0.59545015
0.59456344
0.59370085
0.59285776
0.59202942
0.59121071
0.59039605
0.5895795
0.5887551
0.58791687
0.58705796
0.58616985
0.58524465
0.5842798
0.58327436
0.58221603
0.58110599
0.58001855
0.57881162
0.65080139
0.77107915
0.71718821
0.74511473
0.72645476
0.73314721
0.72635814
0.72630494
0.72324777
0.72118304
0.71867079
0.71613971
0.71349681
0.71075466
0.70791404
0.70497666
0.70194517
0.69882304
0.69561472
0.69232565
0.68896238
0.68553257
0.68204502
0.67850962
0.67493735
0.6713401
0.66773065
0.66412239
0.66052918
0.65696512
0.65344426
0.64998037
0.64658665
0.64327549
0.64005817
0.63694472
0.63394369
0.63106206
0.62830512
0.6256765
0.62317815
0.62081045
0.61857233
0.61646139
0.61447411
0.61260598
0.61085175
0.60920555
0.60766112
0.60621191
0.60485127
0.60357255
0.60236917
0.60123475
0.60016313
0.59914843
0.598185
0.59726746
0.59639061
0.59554944
0.59473901
0.59395451
0.59319139
0.59244523
0.59171167
0.5909863
0.59026443
0.58954088
0.58881012
0.58806656
0.58730462
0.58651782
0.5856982
0.58483879
0.58393619
0.58298515
0.58197759
0.58093594
0.57990133
0.57865202
0.65221262
0.77212188
0.71761602
0.7453895
0.72632471
0.73261945
0.72589495
0.72539538
0.72212033
0.71970902
0.71694595
0.71412099
0.71118225
0.70813649
0.70498592
0.70173392
0.69838479
0.69494397
0.69141817
0.68781536
0.68414485
0.68041726
0.67664452
0.67283974
0.66901712
0.66519171
0.66137927
0.6575959
0.65385785
0.65018111
0.64658116
0.64307258
0.63966878
0.6363817
0.63322157
0.63019678
0.62731369
0.62457667
0.62198808
0.61954836
0.61725619
0.61510864
0.61310144
0.61122912
0.60948531
0.60786294
0.60635445
0.604952
0.60364759
0.60243327
0.60130124
0.60024394
0.59925411
0.59832486
0.59744973
0.59662261
0.59583783
0.59509003
0.59437415
0.59368536
0.59301898
0.59237046
0.59173554
0.5911101
0.59049013
0.58987163
0.58925036
0.58862165
0.58798042
0.58732151
0.58663966
0.5859288
0.58518194
0.58439314
0.58355707
0.58266411
0.58171414
0.5807477
0.57976303
0.57848496
0.6531981
0.77249002
0.71742729
0.74415059
0.72545436
0.7311487
0.72456393
0.72344086
0.72007652
0.71728296
0.7142114
0.71104713
0.70776305
0.70436508
0.70085694
0.69724428
0.69353386
0.68973396
0.68585446
0.68190676
0.67790389
0.67386035
0.669792
0.66571587
0.66164992
0.6576127
0.65362308
0.64969978
0.64586104
0.64212415
0.63850511
0.63501821
0.63167576
0.62848784
0.62546214
0.6226039
0.61991593
0.61739869
0.61505052
0.6128678
0.61084525
0.60897622
0.60725293
0.60566682
0.60420876
0.60286929
0.60163886
0.60050799
0.59946737
0.59850806
0.59762152
0.59679967
0.59603497
0.59532038
0.59464943
0.59401615
0.59341504
0.59284103
0.5922894
0.59175567
0.59123557
0.59072498
0.59022002
0.58971696
0.58921221
0.58870222
0.58818326
0.5876512
0.5871015
0.58652944
0.58593
0.58529759
0.58462653
0.58391185
0.58314528
0.58231366
0.58142736
0.58053961
0.5796023
0.57831253
0.65367604
0.77204054
0.71651821
0.74232593
0.72403848
0.72881691
0.72229838
0.72058001
0.71698247
0.7137697
0.71032465
0.70676574
0.70307934
0.69927339
0.695354
0.69133004
0.6872119
0.68301191
0.67874433
0.67442527
0.67007257
0.66570559
0.66134495
0.65701219
0.65272934
0.64851848
0.64440126
0.64039834
0.63652889
0.63281016
0.629257
0.62588158
0.62269318
0.61969806
0.6168995
0.61429793
0.61189115
0.6096746
0.60764172
0.60578426
0.60409273
0.60255666
0.60116497
0.59990628
0.59876911
0.59774214
0.59681434
0.59597513
0.59521448
0.59452295
0.59389175
0.59331277
0.59277855
0.59228232
0.59181789
0.5913797
0.5909627
0.5905623
0.59017429
0.58979472
0.58941985
0.58904608
0.58867002
0.58828842
0.58789814
0.58749612
0.58707915
0.58664369
0.58618579
0.58570113
0.5851849
0.58463211
0.58403862
0.58340002
0.58270462
0.58193742
0.58112035
0.58031126
0.57941688
0.57813613
0.6535959
0.77070537
0.71476592
0.73969535
0.72167898
0.72545202
0.71899202
0.71659411
0.71269373
0.70900932
0.70511687
0.70109594
0.69694061
0.69266265
0.68827221
0.6837829
0.67921036
0.67457256
0.66988972
0.66518398
0.66047921
0.65580055
0.65117397
0.64662573
0.6421817
0.63786676
0.63370411
0.62971463
0.62591636
0.62232406
0.61894888
0.61579828
0.61287602
0.61018234
0.60771425
0.60546587
0.6034289
0.60159308
0.59994663
0.59847673
0.59716987
0.59601227
0.59499013
0.59408993
0.59329859
0.59260362
0.59199327
0.59145655
0.59098329
0.59056414
0.59019058
0.5898549
0.58955016
0.58927012
0.58900923
0.58876254
0.58852566
0.58829467
0.58806598
0.5878363
0.5876025
0.58736163
0.58711083
0.58684736
0.58656859
0.58627194
0.58595474
0.58561406
0.58524656
0.58484828
0.58441464
0.58394138
0.58342586
0.58286364
0.58223977
0.58154011
0.58079768
0.58006471
0.57920532
0.57795831
0.65293676
0.76838177
0.71210961
0.73600853
0.71830032
0.72095873
0.7144713
0.7113504
0.70703006
0.70280294
0.69837673
0.69381285
0.68911164
0.6842906
0.6793662
0.67435884
0.66929148
0.66418965
0.65908116
0.6539956
0.64896387
0.6440174
0.63918747
0.63450428
0.62999613
0.62568852
0.62160347
0.61775892
0.61416833
0.61084048
0.60777958
0.60498542
0.6024538
0.600177
0.5981444
0.59634304
0.59475822
0.59337408
0.5921741
0.59114152
0.59025974
0.58951257
0.5888845
0.58836084
0.58792785
0.58757276
0.58728386
0.58705047
0.58686291
0.58671249
0.5865914
0.58649273
0.58641037
0.58633892
0.58627367
0.58621048
0.58614576
0.58607635
0.58599943
0.58591241
0.58581283
0.58569843
0.58556694
0.58541618
0.58524401
0.58504831
0.58482697
0.58457765
0.5842976
0.58398323
0.58363026
0.5832353
0.58279682
0.58230956
0.58175644
0.58112749
0.58046471
0.57980341
0.57896923
0.57778152
0.65162598
0.76488449
0.7085094
0.73112226
0.71373482
0.71514994
0.70853502
0.70462057
0.69975458
0.69489144
0.6898316
0.68463179
0.67930074
0.67386413
0.66834758
0.66278085
0.65719656
0.65162982
0.64611769
0.64069824
0.6354096
0.63028885
0.62537081
0.62068694
0.6162643
0.6121248
0.60828464
0.60475415
0.60153777
0.59863447
0.59603824
0.59373876
0.59172223
0.58997211
0.58846989
0.58719585
0.58612963
0.58525083
0.5845394
0.58397596
0.58354215
0.58322069
0.58299555
0.58285201
0.58277663
0.58275727
0.58278302
0.58284415
0.58293201
0.583039
0.58315843
0.58328448
0.5834121
0.58353694
0.58365525
0.58376385
0.58386002
0.58394142
0.58400603
0.584052
0.58407759
0.58408121
0.58406122
0.58401599
0.58394387
0.58384322
0.5837124
0.58354967
0.58335279
0.58311857
0.58284326
0.58252436
0.58216073
0.58174553
0.58126144
0.58070621
0.58012688
0.57953128
0.57871548
0.57760413
0.64960241
0.75996774
0.70405906
0.72486215
0.70780606
0.70780853
0.70091678
0.69611643
0.69055468
0.68493863
0.6791331
0.6731985
0.66715567
0.66104145
0.65489385
0.64875497
0.64266963
0.63668444
0.63084648
0.62520178
0.61979371
0.61466146
0.60983859
0.60535199
0.60122124
0.59745825
0.59406749
0.59104643
0.58838636
0.58607329
0.58408904
0.58241227
0.58101951
0.57988605
0.57898674
0.5782966
0.57779141
0.577448
0.57724461
0.57716098
0.57717851
0.57728027
0.57745095
0.57767683
0.57794573
0.57824686
0.57857073
0.57890907
0.57925469
0.57960137
0.5799438
0.58027743
0.58059843
0.58090358
0.58119019
0.58145605
0.58169935
0.58191858
0.58211249
0.58228
0.58242008
0.58253177
0.58261406
0.58266586
0.58268602
0.58267334
0.58262664
0.58254465
0.58242559
0.58226675
0.58206516
0.5818192
0.58152715
0.58118007
0.5807627
0.58028355
0.57979009
0.57925394
0.57845208
0.57743236
0.64680398
0.75326397
0.69844338
0.71697225
0.70019595
0.69860153
0.69124088
0.68543277
0.67901254
0.67251391
0.66585
0.65909033
0.65227283
0.64544985
0.63867587
0.63200871
0.62550727
0.61922951
0.61323024
0.60755883
0.60225737
0.59735913
0.59288773
0.58885679
0.58527026
0.58212316
0.57940271
0.57708972
0.57515997
0.5735857
0.57233687
0.57138237
0.57069094
0.57023201
0.56997623
0.56989594
0.56996538
0.57016091
0.57046104
0.57084639
0.57129967
0.57180552
0.57235044
0.5729226
0.57351172
0.57410893
0.5747066
0.57529822
0.57587828
0.57644217
0.57698603
0.57750668
0.57800153
0.57846851
0.57890601
0.57931275
0.5796878
0.58003047
0.58034024
0.58061672
0.58085956
0.58106842
0.58124287
0.58138235
0.58148619
0.58155361
0.58158386
0.58157601
0.58152866
0.58143969
0.58130717
0.58113016
0.58090559
0.58062231
0.58026922
0.57986692
0.57945942
0.57897923
0.5781937
0.57726463
0.64311757
0.74422579
0.69121782
0.70702278
0.690466
0.68706214
0.6790047
0.67205205
0.66460883
0.65709873
0.64947847
0.64183337
0.63422561
0.626729
0.6194182
0.61236747
0.6056471
0.59932031
0.5934405
0.58804924
0.58317509
0.57883333
0.57502652
0.5717457
0.56897208
0.56667901
0.56483395
0.56340041
0.56233973
0.56161248
0.56117975
0.56100396
0.56104962
0.56128367
0.56167579
0.56219849
0.56282707
0.56353956
0.56431656
0.56514107
0.56599831
0.56687548
0.5677616
0.56864731
0.56952465
0.57038697
0.57122869
0.57204521
0.5728328
0.57358844
0.57430973
0.57499485
0.57564243
0.57625147
0.57682134
0.5773517
0.5778424
0.5782935
0.57870513
0.57907753
0.57941098
0.57970568
0.57996175
0.58017913
0.58035761
0.58049685
0.58059641
0.58065567
0.58067348
0.58064844
0.58057976
0.5804669
0.58030504
0.58008156
0.57979088
0.57946394
0.57913744
0.57871047
0.57795266
0.57709416
0.63829533
0.73263898
0.68185656
0.69444781
0.67802964
0.67261678
0.66359241
0.65534043
0.64671626
0.63808586
0.62945757
0.62094189
0.612632
0.60462552
0.59701411
0.58988012
0.58329233
0.57730324
0.57194753
0.5672419
0.56318609
0.55976483
0.55695038
0.55470538
0.5529857
0.55174304
0.55092725
0.5504882
0.5503772
0.5505481
0.55095795
0.55156738
0.55234084
0.55324652
0.55425628
0.55534543
0.55649247
0.55767882
0.55888851
0.56010795
0.56132562
0.56253183
0.5637185
0.56487896
0.56600776
0.56710049
0.56815366
0.56916455
0.57013111
0.57105185
0.57192576
0.57275225
0.57353104
0.57426216
0.57494585
0.57558256
0.57617287
0.57671746
0.57721707
0.57767248
0.57808449
0.5784538
0.578781
0.57906649
0.57931052
0.57951316
0.57967428
0.57979343
0.57986977
0.57990261
0.57989215
0.57983787
0.57973343
0.57956633
0.57933709
0.57908236
0.57882625
0.578444
0.57772411
0.57695131
0.63196386
0.71964355
0.6698608
0.67862474
0.66214941
0.65452925
0.64422209
0.63450282
0.62458219
0.61480525
0.60524374
0.59603821
0.58730858
0.57916463
0.57169641
0.56497122
0.55903139
0.55389448
0.54955508
0.54598799
0.54315212
0.54099468
0.53945525
0.53846939
0.53797165
0.53789796
0.5381873
0.53878291
0.53963292
0.54069063
0.54191456
0.54326823
0.5447199
0.54624214
0.54781146
0.54940786
0.55101446
0.55261709
0.55420395
0.5557653
0.55729319
0.55878117
0.56022412
0.56161803
0.56295984
0.5642473
0.56547883
0.56665343
0.5677706
0.56883021
0.56983247
0.57077788
0.57166712
0.57250108
0.57328078
0.57400734
0.57468194
0.57530582
0.57588021
0.57640636
0.57688547
0.57731868
0.57770697
0.57805117
0.57835195
0.57860976
0.57882477
0.57899672
0.57912509
0.57920988
0.57925187
0.57925011
0.57919741
0.57908341
0.57891499
0.57872896
0.57853131
0.57818279
0.57750635
0.57683856
0.62376761
0.70262053
0.65441854
0.6586699
0.64178059
0.63174979
0.61987278
0.60859267
0.59741781
0.58668577
0.57652641
0.56709515
0.55851101
0.5508622
0.54420081
0.53854422
0.53387812
0.53016174
0.52733392
0.52531938
0.52403462
0.5233929
0.52330826
0.52369841
0.52448676
0.52560349
0.52698612
0.52857956
0.5303358
0.53221345
0.53417712
0.53619687
0.53824748
0.5403079
0.54236069
0.54439152
0.54638869
0.54834277
0.55024627
0.55209329
0.55387933
0.555601
0.55725593
0.55884252
0.56035987
0.56180761
0.56318586
0.56449511
0.56573616
0.56691006
0.56801804
0.56906151
0.57004198
0.57096105
0.57182035
0.57262159
0.57336643
0.57405656
0.57469363
0.57527925
0.57581497
0.57630224
0.57674239
0.5771366
0.5774859
0.57779111
0.57805266
0.57827057
0.57844477
0.57857582
0.57866456
0.57870924
0.57870256
0.57863805
0.57852862
0.57840715
0.57825896
0.57793663
0.57730828
0.57676567
0.61307776
0.6806408
0.63411382
0.63319615
0.61547004
0.60292234
0.58941016
0.57674999
0.5647111
0.55360353
0.54357086
0.53473536
0.52716125
0.52086423
0.51581501
0.5119483
0.50917238
0.50737872
0.50645059
0.50627012
0.5067235
0.50770458
0.50911696
0.51087491
0.51290352
0.51513826
0.51752418
0.52001494
0.52257186
0.52516287
0.52776159
0.53034654
0.5329003
0.53540894
0.53786141
0.54024911
0.54256542
0.54480541
0.54696554
0.54904341
0.55103757
0.55294734
0.55477268
0.55651406
0.5581724
0.55974891
0.5612451
0.5626627
0.56400356
0.56526969
0.56646316
0.5675861
0.56864068
0.56962907
0.57055342
0.57141588
0.57221851
0.57296334
0.57365236
0.57428748
0.57487049
0.5754031
0.5758869
0.57632336
0.57671379
0.57705928
0.57736057
0.57761803
0.57783217
0.57800397
0.57813396
0.57821946
0.57825375
0.57823481
0.57818025
0.5781169
0.57801303
0.57772257
0.57715572
0.57671619
0.59873578
0.651629
0.60708468
0.60048297
0.58164546
0.56671565
0.552
0.53867537
0.52669851
0.51629167
0.50752541
0.50041393
0.49490236
0.49088664
0.48822745
0.48676597
0.48633664
0.4867772
0.4879356
0.4896741
0.49187118
0.49442182
0.49723682
0.50024144
0.50337374
0.50658294
0.50982775
0.5130749
0.5162978
0.51947541
0.52259126
0.52563263
0.52858986
0.53145579
0.53422533
0.536895
0.53946267
0.54192731
0.54428873
0.54654747
0.5487046
0.55076164
0.55272047
0.55458322
0.55635223
0.55802999
0.55961911
0.56112226
0.56254215
0.56388151
0.56514308
0.56632954
0.56744356
0.56848777
0.56946471
0.57037687
0.57122662
0.57201627
0.57274806
0.5734241
0.57404642
0.5746169
0.57513732
0.57560936
0.57603453
0.57641412
0.57674911
0.57704033
0.57728885
0.57749598
0.57766184
0.57778318
0.57785452
0.57787783
0.57787251
0.5778577
0.57779132
0.5775418
0.57705534
0.57668974
0.57886873
0.61327961
0.57117714
0.55879616
0.53936459
0.52247654
0.50772231
0.49516605
0.48477054
0.47657706
0.47048182
0.46631974
0.46387462
0.4629089
0.46318272
0.46446891
0.46656174
0.46928122
0.47247397
0.47601203
0.47979032
0.48372376
0.48774422
0.49179771
0.49584186
0.49984376
0.50377811
0.50762576
0.51137244
0.51500777
0.5185245
0.52191781
0.52518482
0.52832419
0.53133576
0.53422031
0.53697935
0.53961496
0.54212962
0.54452616
0.54680762
0.54897723
0.55103831
0.55299427
0.55484855
0.55660458
0.55826579
0.55983558
0.56131729
0.56271418
0.56402948
0.56526631
0.5664277
0.5675166
0.56853586
0.56948821
0.57037628
0.57120258
0.57196952
0.57267942
0.57333442
0.57393657
0.57448779
0.5749899
0.57544453
0.57585309
0.57621679
0.57653683
0.57681473
0.57705194
0.57724833
0.57740074
0.57750577
0.57756856
0.57760762
0.57763288
0.57759549
0.57738314
0.57698083
0.57673086
0.55093825
0.56315766
0.52510085
0.50683909
0.48630279
0.47098459
0.45816016
0.44844013
0.44154975
0.43724182
0.43516319
0.43494687
0.43623338
0.43869647
0.44205287
0.44606544
0.45054077
0.45532444
0.46029512
0.46535881
0.47044353
0.47549485
0.48047211
0.48534539
0.49009309
0.49470007
0.49915612
0.5034548
0.5075926
0.51156817
0.51538186
0.51903523
0.5225308
0.52587176
0.52906178
0.53210489
0.53500535
0.53776756
0.54039601
0.5428952
0.54526962
0.54752375
0.54966196
0.55168859
0.55360785
0.55542387
0.55714066
0.55876213
0.56029206
0.56173413
0.56309188
0.56436875
0.56556802
0.56669289
0.56774641
0.5687315
0.56965096
0.57050745
0.57130355
0.57204166
0.57272408
0.57335297
0.57393036
0.57445816
0.57493807
0.5753716
0.57576013
0.57610515
0.57640834
0.57667108
0.57689308
0.57707194
0.57720669
0.57730475
0.5773821
0.57744074
0.5774311
0.57726377
0.57694914
0.57678089
0.51087155
0.49866603
0.46162464
0.4439087
0.42665279
0.41462377
0.40648037
0.40201059
0.40054612
0.40149812
0.40429551
0.40845266
0.41356987
0.41933193
0.42549651
0.43188134
0.43835162
0.44480922
0.45118381
0.45742591
0.46350154
0.46938819
0.47507174
0.48054422
0.48580216
0.49084529
0.49567565
0.50029692
0.50471388
0.50893209
0.51295757
0.51679663
0.52045571
0.52394129
0.52725981
0.53041761
0.53342087
0.53627565
0.53898782
0.54156307
0.54400689
0.5463246
0.54852132
0.550602
0.5525714
0.5544341
0.55619453
0.55785692
0.55942538
0.56090382
0.56229604
0.56360564
0.56483613
0.56599084
0.56707297
0.56808557
0.56903154
0.56991368
0.57073465
0.57149697
0.57220302
0.57285506
0.5734552
0.57400544
0.57450754
0.57496311
0.5753737
0.57574091
0.57606644
0.57635142
0.57659553
0.5767974
0.57695794
0.5770851
0.57719092
0.57727194
0.57728477
0.57716653
0.57694698
0.57686677
0.44990358
0.41743928
0.38792151
0.37323261
0.36254255
0.35790339
0.35747475
0.36034044
0.36550405
0.37220959
0.37987541
0.38808143
0.39653095
0.40501997
0.41341115
0.42161443
0.42957271
0.43725174
0.44463292
0.4517083
0.45847709
0.46494328
0.47111392
0.47699799
0.48260557
0.48794734
0.49303417
0.4978769
0.50248614
0.5068722
0.51104501
0.51501411
0.51878858
0.52237711
0.52578797
0.52902903
0.53210776
0.53503129
0.5378064
0.54043953
0.54293684
0.5453042
0.54754719
0.54967115
0.5516812
0.55358221
0.55537884
0.55707558
0.55867668
0.56018626
0.56160823
0.56294634
0.56420419
0.56538522
0.56649273
0.56752983
0.56849952
0.56940466
0.570248
0.5710321
0.57175943
0.57243232
0.57305297
0.5736234
0.5741455
0.57462097
0.5750515
0.57543878
0.5757844
0.57608936
0.57635359
0.57657674
0.57676082
0.57691252
0.57703924
0.57713489
0.57716725
0.57709944
0.57696744
0.57692642
0.35499587
0.32139728
0.30393032
0.29959384
0.30108724
0.30744727
0.31667895
0.32752701
0.33912179
0.35091818
0.36258434
0.37392726
0.3848412
0.39527443
0.40520818
0.41464336
0.42359238
0.43207397
0.44011003
0.4477237
0.45493818
0.46177604
0.46825884
0.47440695
0.48023945
0.48577416
0.49102765
0.49601533
0.50075151
0.50524951
0.50952169
0.51357958
0.51743392
0.52109474
0.52457143
0.52787278
0.53100705
0.53398201
0.53680497
0.53948285
0.54202218
0.54442913
0.54670959
0.54886912
0.55091303
0.55284635
0.55467391
0.5564003
0.55802989
0.55956687
0.56101525
0.56237885
0.56366132
0.56486616
0.56599672
0.56705616
0.56804752
0.56897372
0.56983751
0.57064154
0.5713883
0.57208017
0.57271938
0.57330804
0.57384808
0.57434134
0.57478959
0.57519457
0.57555778
0.57588026
0.5761624
0.57640478
0.57660969
0.57678185
0.57692496
0.57703355
0.57708799
0.57706948
0.57700212
0.57698683
0.21628428
0.21499459
0.22046385
0.23396312
0.25129936
0.26970249
0.28796029
0.30543534
0.3219013
0.33729728
0.3516497
0.36501975
0.37748155
0.38911061
0.39997878
0.41015214
0.41969044
0.42864718
0.43707007
0.44500163
0.45247974
0.45953818
0.46620718
0.47251384
0.47848252
0.4841352
0.48949176
0.49457026
0.49938713
0.50395738
0.50829479
0.51241199
0.51632067
0.52003161
0.52355482
0.52689961
0.53007468
0.53308813
0.53594758
0.53866018
0.54123267
0.54367142
0.54598242
0.54817137
0.55024367
0.55220445
0.55405861
0.55581078
0.5574654
0.5590267
0.56049872
0.56188532
0.56319018
0.56441683
0.56556862
0.56664876
0.56766029
0.56860614
0.5694891
0.57031181
0.57107681
0.57178648
0.57244308
0.57304873
0.57360541
0.57411504
0.57457943
0.5750003
0.57537913
0.57571703
0.57601485
0.57627373
0.57649576
0.57668386
0.57683953
0.57695926
0.57703369
0.577056
0.57704032
0.57703385
0.091750388
0.12174847
0.15920347
0.1928889
0.22302491
0.24954722
0.27307705
0.29408287
0.312982
0.33010141
0.34570468
0.36000284
0.37316714
0.38533768
0.39663033
0.40714177
0.4169534
0.42613436
0.43474379
0.44283266
0.4504452
0.45762002
0.46439102
0.47078815
0.47683799
0.48256426
0.48798821
0.49312897
0.49800386
0.50262858
0.50701744
0.51118356
0.51513896
0.51889473
0.52246111
0.5258476
0.52906304
0.53211569
0.53501326
0.53776297
0.54037164
0.54284567
0.54519112
0.54741371
0.54951888
0.55151177
0.55339729
0.5551801
0.55686465
0.55845517
0.55995572
0.56137016
0.56270218
0.56395531
0.56513293
0.56623823
0.56727428
0.56824399
0.56915017
0.56999548
0.57078243
0.5715134
0.57219066
0.57281632
0.57339239
0.57392079
0.57440334
0.57484172
0.57523738
0.57559149
0.5759051
0.57617953
0.57641657
0.57661807
0.57678466
0.57691457
0.57700409
0.57705065
0.57706262
0.57706057
0.012340383
0.28481533
0.46697844
0.51769206
0.52740901
0.52742565
0.52742855
0.52904385
0.53093719
0.53275184
0.53443641
0.53608312
0.53763676
0.53916261
0.54066462
0.54215876
0.54364425
0.54512333
0.54659794
0.54806873
0.5495357
0.55099846
0.55245638
0.55390855
0.55535389
0.55679114
0.55821897
0.55963593
0.56104052
0.56243119
0.56380634
0.56516436
0.56650357
0.56782231
0.56911886
0.5703915
0.57163847
0.57285801
0.57404832
0.57520759
0.57633398
0.57742565
0.57848072
0.57949729
0.58047348
0.58140738
0.58229712
0.58314083
0.5839367
0.58468299
0.58537801
0.58602019
0.58660809
0.58714039
0.58761593
0.58803371
0.58839296
0.58869299
0.58893339
0.58911365
0.58923307
0.58929132
0.58928849
0.58922483
0.58909974
0.5889134
0.58866163
0.58834909
0.58795856
0.58752258
0.58696812
0.58643633
0.58565193
0.58509583
0.5839368
0.58354757
0.58181178
0.58173526
0.57954815
0.57952169
0.047205828
0.36912287
0.52235338
0.54926394
0.54938366
0.54684962
0.54607929
0.54635496
0.54659295
0.54689171
0.54728996
0.54783981
0.54850183
0.54924599
0.55004802
0.5509029
0.55180542
0.55275319
0.55374208
0.55476753
0.55582543
0.55691185
0.55802302
0.55915529
0.5603051
0.56146903
0.56264372
0.56382595
0.56501257
0.56620053
0.56738686
0.56856868
0.56974317
0.57090759
0.57205926
0.57319556
0.5743139
0.57541177
0.57648668
0.57753617
0.57855784
0.5795493
0.5805082
0.58143221
0.58231905
0.58316647
0.5839723
0.58473441
0.58545077
0.58611945
0.58673863
0.58730662
0.58782191
0.58828314
0.58868915
0.58903896
0.58933181
0.58956711
0.58974454
0.58986366
0.58992389
0.58992504
0.58986736
0.58975117
0.58957606
0.58934209
0.58904566
0.58869036
0.58826143
0.58778669
0.58720226
0.58663252
0.58583001
0.58523565
0.58407323
0.58364262
0.58190696
0.5818188
0.57955462
0.57964667
0.094086375
0.44113881
0.54490788
0.55784227
0.55576675
0.55450723
0.55442871
0.55488839
0.55516729
0.5555592
0.55593477
0.5563741
0.55683757
0.55735212
0.55790711
0.55850609
0.55914573
0.55982662
0.56054688
0.56130423
0.56209647
0.56292121
0.56377594
0.56465798
0.56556457
0.56649287
0.56743999
0.56840299
0.5693789
0.57036473
0.57135749
0.57235417
0.57335178
0.57434733
0.57533783
0.57632035
0.57729194
0.5782497
0.57919075
0.58011225
0.58101138
0.58188538
0.58273149
0.58354704
0.58432939
0.585076
0.58578438
0.58645215
0.58707707
0.58765698
0.58818991
0.58867405
0.58910777
0.58948966
0.58981853
0.59009337
0.59031344
0.59047822
0.59058743
0.59064071
0.59063756
0.59057792
0.59046213
0.5902906
0.59006302
0.58977939
0.5894365
0.58903722
0.58856837
0.58805472
0.58743814
0.586832
0.58600742
0.58537962
0.58420733
0.58374121
0.581997
0.58189919
0.57957281
0.57975553
0.16693305
0.49937163
0.55841241
0.56579744
0.562381
0.56226493
0.56231116
0.56280136
0.56297042
0.56331039
0.56358742
0.56394313
0.56430934
0.56471601
0.56514602
0.56560527
0.56609186
0.56660824
0.56715377
0.56772784
0.56832983
0.56895895
0.56961418
0.57029429
0.57099786
0.57172327
0.57246872
0.57323223
0.57401167
0.57480474
0.57560903
0.576422
0.57724101
0.5780633
0.57888609