/*--------------------------------*- C++ -*----------------------------------*\
| =========                 |                                                 |
| \\      /  F ield         | OpenFOAM: The Open Source CFD Toolbox           |
|  \\    /   O peration     | Version:  2512                                  |
|   \\  /    A nd           | Website:  www.openfoam.com                      |
|    \\/     M anipulation  |                                                 |
\*---------------------------------------------------------------------------*/
FoamFile
{
    version     2.0;
    format      ascii;
    arch        "LSB;label=32;scalar=64";
    class       volScalarField;
    location    "0.15";
    object      nut;
}
// * * * * * * * * * * * * * * * * * * * * * * * * * * * * * * * * * * * * * //

dimensions      [0 2 -1 0 0 0 0];

internalField   nonuniform List<scalar> 
16000
(
5.7166501e-07
1.1004859e-05
1.9143998e-05
2.3112061e-05
1.8551398e-05
2.5098961e-05
1.7865701e-05
2.4525073e-05
1.9093828e-05
2.6492482e-05
2.2177515e-05
2.6141592e-05
2.3736429e-05
2.4356741e-05
2.3486293e-05
2.3325471e-05
2.3052332e-05
2.2961481e-05
2.2950074e-05
2.3038148e-05
2.321795e-05
2.3488006e-05
2.3845547e-05
2.4290358e-05
2.4824156e-05
2.5452554e-05
2.6183133e-05
2.7028215e-05
2.8002852e-05
2.9123244e-05
3.0407151e-05
3.1878268e-05
3.356725e-05
3.551189e-05
3.775872e-05
4.0363248e-05
4.3391591e-05
4.6922573e-05
5.1053807e-05
5.5906307e-05
6.1622028e-05
6.8368034e-05
7.635504e-05
8.5841132e-05
9.7133348e-05
0.00011059983
0.00012669708
0.00014598133
0.00016912975
0.00019696751
0.00023050445
0.00027097937
0.00031990692
0.00037914325
0.00045096304
0.00053816441
0.0006441995
0.00077334409
0.00093092669
0.0010189112
0.0010188332
0.0010187124
0.0010185565
0.0010183296
0.0010180291
0.0010176447
0.0010171688
0.0010165918
0.0010158988
0.0010150681
0.0010140688
0.0010128474
0.0010113659
0.0010098625
0.0010085879
0.00100748
0.0010065024
0.0010065341
0.0010047902
0.0010056388
5.076211e-07
1.0427207e-05
1.9562205e-05
2.0981683e-05
1.6765569e-05
2.2543189e-05
1.588553e-05
2.150304e-05
1.6895765e-05
2.3416102e-05
2.0107773e-05
2.3593813e-05
2.1733914e-05
2.2092588e-05
2.1407656e-05
2.1196635e-05
2.0966891e-05
2.0873299e-05
2.0865075e-05
2.0945305e-05
2.1111451e-05
2.1361662e-05
2.1693721e-05
2.2107514e-05
2.260426e-05
2.3189186e-05
2.3868826e-05
2.4654259e-05
2.5559717e-05
2.660101e-05
2.7794653e-05
2.9162281e-05
3.0732257e-05
3.2539563e-05
3.4627731e-05
3.7048951e-05
3.9865805e-05
4.3152359e-05
4.6999511e-05
5.1521821e-05
5.6855734e-05
6.315854e-05
7.0628666e-05
7.9512214e-05
9.0104151e-05
0.00010275444
0.00011789863
0.00013606926
0.00015791624
0.00018423212
0.00021598724
0.00025437523
0.00030085773
0.00035722964
0.00042569319
0.00050896069
0.00061038313
0.00073410811
0.00088528997
0.0010181941
0.0010181361
0.0010179927
0.0010178217
0.0010175818
0.0010172699
0.0010168755
0.0010163902
0.0010158046
0.0010151041
0.0010142667
0.0010132649
0.0010120526
0.0010105942
0.0010091642
0.0010079524
0.0010068705
0.0010060215
0.0010057164
0.0010046902
0.0010055507
4.329619e-07
9.9890588e-06
1.8554345e-05
1.9177323e-05
1.5045387e-05
1.989806e-05
1.416136e-05
1.8710073e-05
1.5207497e-05
2.0552164e-05
1.8347341e-05
2.1014429e-05
1.9699015e-05
1.9793172e-05
1.9263612e-05
1.9033873e-05
1.8840128e-05
1.8754741e-05
1.8752303e-05
1.8829482e-05
1.8985224e-05
1.9218076e-05
1.9526121e-05
1.9909561e-05
2.0369286e-05
2.0910366e-05
2.1538649e-05
2.2264184e-05
2.3100254e-05
2.4062296e-05
2.5166017e-05
2.6431438e-05
2.7885042e-05
2.9559405e-05
3.1495412e-05
3.3742216e-05
3.6359291e-05
3.9417004e-05
4.3000651e-05
4.7218373e-05
5.2202155e-05
5.8101833e-05
6.5105397e-05
7.3447851e-05
8.3414683e-05
9.5341297e-05
0.00010964581
0.00012684118
0.00014755482
0.00017255315
0.00020277417
0.0002393747
0.00028377289
0.00033771372
0.00040334037
0.0004832946
0.00058084391
0.00070003712
0.00084589905
0.0010175231
0.001017485
0.0010173147
0.0010171208
0.0010168602
0.0010165294
0.0010161176
0.0010156159
0.0010150149
0.0010143002
0.0010134494
0.0010124369
0.0010112252
0.0010097831
0.0010084345
0.00100729
0.0010062727
0.0010054856
0.0010050669
0.0010045022
0.0010053807
3.9399524e-07
9.6649081e-06
1.7657033e-05
1.8421543e-05
1.3580219e-05
1.7599621e-05
1.2637213e-05
1.6363444e-05
1.3704235e-05
1.8119464e-05
1.6763951e-05
1.8732158e-05
1.7823245e-05
1.7724636e-05
1.7311881e-05
1.7083634e-05
1.6921111e-05
1.6848057e-05
1.6853048e-05
1.6929582e-05
1.7077345e-05
1.7295416e-05
1.7582238e-05
1.7938471e-05
1.8364828e-05
1.8866358e-05
1.9448474e-05
2.0120414e-05
2.0894557e-05
2.1786036e-05
2.2810034e-05
2.3985203e-05
2.5336507e-05
2.6894458e-05
2.8697709e-05
3.0792804e-05
3.3236542e-05
3.6096411e-05
3.9453279e-05
4.3409332e-05
4.8093168e-05
5.3649032e-05
6.0256592e-05
6.8141041e-05
7.7581119e-05
8.8901112e-05
0.00010250545
0.00011889196
0.00013867088
0.00016258958
0.0001915617
0.00022671732
0.00026944295
0.00032144832
0.00038483569
0.00046219841
0.00055674687
0.00067246477
0.00081429857
0.00098838488
0.0010168777
0.0010166778
0.0010164562
0.0010161705
0.0010158163
0.001015383
0.0010148608
0.0010142404
0.001013508
0.0010126408
0.0010116139
0.001010401
0.0010089729
0.0010077051
0.0010066315
0.0010056851
0.0010049288
0.001004461
0.0010041945
0.0010048864
3.4739645e-07
9.4311573e-06
1.6894734e-05
1.8500952e-05
1.3450524e-05
1.55885e-05
1.1298933e-05
1.4349497e-05
1.2410436e-05
1.6026059e-05
1.5357274e-05
1.6677214e-05
1.6073021e-05
1.5843847e-05
1.5517211e-05
1.5303488e-05
1.5165891e-05
1.5104672e-05
1.5114941e-05
1.5189498e-05
1.5328372e-05
1.5531332e-05
1.5797215e-05
1.6127181e-05
1.6521906e-05
1.6986453e-05
1.7525919e-05
1.8148895e-05
1.8866854e-05
1.9694576e-05
2.064691e-05
2.1741376e-05
2.3001683e-05
2.445657e-05
2.6142779e-05
2.8104597e-05
3.0396444e-05
3.3083504e-05
3.624337e-05
3.9972592e-05
4.4396959e-05
4.9656601e-05
5.5924763e-05
6.3417484e-05
7.24085e-05
8.3213565e-05
9.6225936e-05
0.0001119312
0.00013092553
0.00015394176
0.00018187381
0.00021583078
0.00025717394
0.0003075853
0.00036913539
0.00044437987
0.00053648471
0.00064938288
0.00078796136
0.00095827776
0.0010163152
0.001016083
0.0010158285
0.0010155126
0.0010151302
0.0010146706
0.0010141236
0.0010134793
0.0010127249
0.001011838
0.0010107921
0.0010095746
0.0010081711
0.001006984
0.0010059847
0.0010051092
0.0010043778
0.0010039053
0.0010038296
0.0010041729
3.0471654e-07
9.274354e-06
1.6283657e-05
1.8229724e-05
1.3249074e-05
1.3834003e-05
1.0748496e-05
1.2680424e-05
1.1717761e-05
1.4306947e-05
1.4127323e-05
1.4870693e-05
1.4469149e-05
1.4162345e-05
1.3889743e-05
1.3692242e-05
1.3570887e-05
1.3517394e-05
1.352956e-05
1.3600356e-05
1.3729807e-05
1.3918236e-05
1.4164741e-05
1.4470735e-05
1.4837081e-05
1.5268742e-05
1.5770579e-05
1.6350692e-05
1.7019681e-05
1.7791949e-05
1.8682183e-05
1.9706999e-05
2.0889133e-05
2.2255861e-05
2.3842381e-05
2.5691136e-05
2.7854567e-05
3.0396061e-05
3.339118e-05
3.693166e-05
4.1140757e-05
4.6156007e-05
5.2146631e-05
5.9320429e-05
6.7948017e-05
7.8339626e-05
9.0880318e-05
0.00010604711
0.00012442584
0.00014674046
0.00017387105
0.00020691318
0.00024721149
0.00029643038
0.00035662135
0.00043031741
0.00052065789
0.00063154586
0.00076783683
0.00093554838
0.0010157894
0.0010155225
0.0010152307
0.0010148804
0.0010144656
0.0010139758
0.0010134001
0.0010127283
0.0010119485
0.0010110394
0.0010099718
0.0010087442
0.0010073835
0.0010062768
0.0010053541
0.0010045488
0.0010038466
0.0010033839
0.0010034424
0.0010035383
2.8301424e-07
9.1821448e-06
1.5803254e-05
1.7203618e-05
1.3093368e-05
1.2224073e-05
1.0739918e-05
1.1676859e-05
1.1209382e-05
1.2720293e-05
1.3005081e-05
1.3264962e-05
1.2968751e-05
1.2629636e-05
1.2389087e-05
1.2209171e-05
1.2101079e-05
1.2055085e-05
1.2069624e-05
1.2138205e-05
1.2260485e-05
1.243727e-05
1.2667914e-05
1.2877361e-05
1.3210695e-05
1.3606583e-05
1.4069273e-05
1.4606182e-05
1.5226865e-05
1.5945015e-05
1.6775126e-05
1.7732946e-05
1.8840318e-05
2.0123141e-05
2.1615194e-05
2.3357249e-05
2.5399903e-05
2.7804786e-05
3.0646183e-05
3.426861e-05
3.8304784e-05
4.3124958e-05
4.8896741e-05
5.5820898e-05
6.4165987e-05
7.4239625e-05
8.6421564e-05
0.00010118358
0.00011910435
0.00014090415
0.00016745445
0.000199844
0.00023940847
0.00028780355
0.0003470727
0.00041973956
0.00050893229
0.00061854182
0.00075341434
0.00091955938
0.0010152972
0.0010149929
0.0010146603
0.0010142718
0.0010138209
0.0010132973
0.0010126896
0.0010119872
0.0010111785
0.0010102451
0.0010091552
0.0010079094
0.0010066195
0.0010055929
0.0010047469
0.001004011
0.001003347
0.001002901
0.0010029924
0.0010029524
2.536529e-07
9.1289879e-06
1.538315e-05
1.5608178e-05
1.1735003e-05
1.0648607e-05
9.0567748e-06
1.0372827e-05
9.488734e-06
1.1460314e-05
1.1864405e-05
1.1781772e-05
1.1530985e-05
1.120281e-05
1.0989882e-05
1.0832726e-05
1.0740668e-05
1.0705267e-05
1.0660008e-05
1.0713749e-05
1.0820872e-05
1.0981325e-05
1.119328e-05
1.145631e-05
1.177456e-05
1.2151072e-05
1.259026e-05
1.3099508e-05
1.3687862e-05
1.436862e-05
1.5156513e-05
1.6066851e-05
1.7121084e-05
1.8344266e-05
1.9769372e-05
2.1436138e-05
2.3394076e-05
2.5703752e-05
2.8439049e-05
3.168991e-05
3.5565947e-05
4.0205958e-05
4.577775e-05
5.2918992e-05
6.1063207e-05
7.0915247e-05
8.2852791e-05
9.7345633e-05
0.00011496859
0.00013644388
0.0001626399
0.00019464568
0.00023379632
0.00028174836
0.00034054908
0.0004127272
0.00050141677
0.00061051633
0.00074488592
0.00091055979
0.0010148319
0.0010144881
0.0010141115
0.0010136817
0.0010131918
0.0010126314
0.0010119891
0.0010112536
0.0010104133
0.0010094533
0.0010083443
0.0010070735
0.0010058851
0.0010049382
0.0010041676
0.0010035005
0.0010028819
0.001002457
0.0010025199
0.0010023845
2.2582792e-07
9.0952819e-06
1.4926979e-05
1.3669662e-05
9.6161991e-06
9.4878902e-06
7.4920057e-06
8.908013e-06
9.0633601e-06
1.0265388e-05
1.0712447e-05
1.040543e-05
1.0178701e-05
9.8847562e-06
9.698882e-06
9.4991273e-06
9.3994567e-06
9.3610876e-06
9.3770022e-06
9.443881e-06
9.5567851e-06
9.7187733e-06
9.9272454e-06
1.0182669e-05
1.0489106e-05
1.0850411e-05
1.1271106e-05
1.1758638e-05
1.2321724e-05
1.2973261e-05
1.3728314e-05
1.460199e-05
1.5615625e-05
1.6793697e-05
1.8168694e-05
1.977974e-05
2.1675701e-05
2.3916575e-05
2.6575689e-05
2.9742254e-05
3.3526304e-05
3.8064714e-05
4.3528142e-05
5.0114443e-05
5.8077207e-05
6.7731854e-05
8.0159035e-05
9.4516351e-05
0.00011199967
0.00013333845
0.00015940394
0.00019129256
0.00023034734
0.00027823551
0.00033702011
0.00040924984
0.0004980822
0.00060744371
0.00074223112
0.00090853428
0.0010143881
0.0010140025
0.0010135798
0.0010131063
0.0010125749
0.0010119755
0.0010112965
0.0010105262
0.0010096525
0.0010086629
0.0010075405
0.0010062702
0.0010051866
0.0010043192
0.0010036211
0.0010030219
0.0010024542
0.0010020481
0.0010020709
0.0010018267
2.0859163e-07
9.0537207e-06
1.3219752e-05
1.1952941e-05
7.7731118e-06
8.4418895e-06
6.7871659e-06
8.0174887e-06
8.3871126e-06
9.1757466e-06
9.5726493e-06
9.1537574e-06
8.93661e-06
8.5977244e-06
8.4047137e-06
8.2767446e-06
8.2107747e-06
8.1978148e-06
8.2308543e-06
8.3103478e-06
8.4305931e-06
8.5933709e-06
8.7999017e-06
9.0500386e-06
9.3481218e-06
9.6984456e-06
1.0105716e-05
1.0577578e-05
1.1122567e-05
1.1753207e-05
1.2484944e-05
1.3332969e-05
1.4318701e-05
1.5466286e-05
1.6808016e-05
1.838277e-05
2.0239176e-05
2.2437172e-05
2.5050419e-05
2.8168588e-05
3.1901867e-05
3.6386827e-05
4.1797366e-05
4.8331596e-05
5.6245606e-05
6.5857118e-05
7.7557814e-05
9.1807481e-05
0.00011018765
0.00013157895
0.00015773982
0.00018978114
0.00022906307
0.00027727384
0.00033650502
0.00040934099
0.00049898164
0.00060940386
0.0007455655
0.00091364185
0.0010139592
0.00101353
0.0010130598
0.0010125409
0.0010119664
0.0010113263
0.0010106091
0.001009803
0.0010088957
0.0010078742
0.0010067386
0.001005514
0.0010045296
0.001003741
0.0010031114
0.0010025781
0.0010020684
0.0010016773
0.0010016338
0.0010013092
1.9015039e-07
9.002864e-06
1.0481493e-05
9.8264029e-06
6.4348719e-06
7.5134974e-06
6.1924362e-06
7.1999136e-06
7.8396362e-06
8.179845e-06
8.4529883e-06
7.9286212e-06
7.6675165e-06
7.4282758e-06
7.2828416e-06
7.1940471e-06
7.1563231e-06
7.1660768e-06
7.2158985e-06
7.305012e-06
7.431856e-06
7.5977939e-06
7.8044255e-06
8.0522277e-06
8.3456574e-06
8.6894809e-06
9.0887153e-06
9.5512529e-06
1.0085626e-05
1.070404e-05
1.1363817e-05
1.2187568e-05
1.3147368e-05
1.4266982e-05
1.5578476e-05
1.7120501e-05
1.8941509e-05
2.1101421e-05
2.3674352e-05
2.67507e-05
3.0441816e-05
3.5159225e-05
4.0572313e-05
4.7121272e-05
5.5064801e-05
6.4724133e-05
7.6502265e-05
9.0870112e-05
0.00010842155
0.00012989696
0.00015763314
0.00019009994
0.00022993648
0.00027886286
0.00033901263
0.00041302268
0.00050415536
0.00061646246
0.00075498982
0.00092602683
0.0010135391
0.0010130648
0.0010125464
0.0010119812
0.0010113625
0.001010681
0.0010099249
0.0010090823
0.0010081421
0.0010070907
0.0010059344
0.0010048074
0.0010039191
0.0010032077
0.001002642
0.0010021704
0.0010017245
0.001001353
0.0010012268
0.0010009146
1.7492732e-07
8.9499296e-06
8.2725696e-06
8.364363e-06
5.7606474e-06
6.6534433e-06
5.680172e-06
6.4848068e-06
7.2802762e-06
7.2503396e-06
7.2394585e-06
6.7925142e-06
6.5783523e-06
6.400167e-06
6.2953557e-06
6.2395859e-06
6.2279288e-06
6.255851e-06
6.3200783e-06
6.4201796e-06
6.5546194e-06
6.7251936e-06
6.9343805e-06
7.1831547e-06
7.4761019e-06
7.7848045e-06
8.1748325e-06
8.627724e-06
9.1518769e-06
9.7590543e-06
1.0463406e-05
1.1283337e-05
1.22396e-05
1.3356039e-05
1.4665042e-05
1.6205701e-05
1.8027115e-05
2.0190072e-05
2.2770257e-05
2.5860092e-05
2.9573693e-05
3.4053664e-05
3.9474746e-05
4.6046509e-05
5.4032193e-05
6.4313253e-05
7.627927e-05
9.0895509e-05
0.00010876683
0.00013065696
0.00015749913
0.00019223783
0.00023296266
0.00028300638
0.00034455866
0.00042032713
0.0005136582
0.00062870547
0.00077063392
0.00094587494
0.001013122
0.0010126012
0.0010120348
0.0010114231
0.00101076
0.0010100368
0.001009242
0.0010083631
0.0010073903
0.0010063171
0.0010051473
0.0010041528
0.0010033578
0.0010027221
0.001002216
0.0010017997
0.0010014178
0.0010010797
0.0010008819
0.0010005508
1.6150401e-07
8.8714662e-06
6.5815232e-06
7.3471246e-06
5.1338674e-06
5.8831785e-06
5.2367692e-06
5.8477924e-06
6.6129576e-06
6.1972018e-06
6.1434163e-06
5.7982299e-06
5.627406e-06
5.4989349e-06
5.4291592e-06
5.4018692e-06
5.4125356e-06
5.4586247e-06
5.5370928e-06
5.6483844e-06
5.7918452e-06
5.9694046e-06
6.1579107e-06
6.405563e-06
6.6972047e-06
7.0370418e-06
7.4321339e-06
7.8900312e-06
8.4193236e-06
9.0319507e-06
9.7421973e-06
1.0568238e-05
1.153206e-05
1.2657885e-05
1.3978682e-05
1.5534353e-05
1.7375175e-05
1.9563299e-05
2.2176675e-05
2.5310739e-05
2.9082554e-05
3.3638014e-05
3.9160907e-05
4.5866197e-05
5.4025491e-05
6.3976662e-05
7.6139484e-05
9.1021517e-05
0.00011021011
0.00013270352
0.00016030486
0.0001942063
0.00023812889
0.0002897002
0.00035315023
0.00043127728
0.00052753528
0.00064620815
0.00079261732
0.00097336703
0.0010127025
0.0010121344
0.0010115209
0.0010108633
0.0010101562
0.0010093916
0.0010085589
0.0010076452
0.0010066398
0.0010055525
0.0010044362
0.0010035517
0.0010028473
0.0010022853
0.0010018358
0.0010014672
0.0010011426
0.0010008504
0.0010006165
0.0010002618
1.4959835e-07
8.7383617e-06
5.283281e-06
6.4238898e-06
4.5708123e-06
5.1955199e-06
4.858171e-06
5.1969073e-06
5.7767548e-06
5.282135e-06
5.1826371e-06
4.9293622e-06
4.7992102e-06
4.7122721e-06
4.6734999e-06
4.6718348e-06
4.7034272e-06
4.7667764e-06
4.8598255e-06
4.9648354e-06
5.1133967e-06
5.296087e-06
5.5152035e-06
5.7737346e-06
6.0759619e-06
6.4264427e-06
6.8321265e-06
7.3011559e-06
7.8423219e-06
8.4677122e-06
9.191734e-06
1.0032799e-05
1.0963697e-05
1.2098921e-05
1.3431364e-05
1.5001712e-05
1.6861616e-05
1.9074639e-05
2.1721023e-05
2.4899706e-05
2.8731674e-05
3.3620479e-05
3.9295347e-05
4.6195098e-05
5.4600768e-05
6.4860046e-05
7.7412945e-05
9.2789672e-05
0.00011163973
0.00013600651
0.00016459632
0.00019973119
0.00024293311
0.00029892611
0.00036477912
0.00044587843
0.00054581214
0.00066902343
0.00082103328
0.0010086612
0.0010122757
0.0010116603
0.0010110014
0.001010299
0.001009549
0.001008744
0.0010078743
0.0010069288
0.0010058961
0.0010047884
0.0010037906
0.001003007
0.0010023874
0.0010018965
0.0010015024
0.0010011754
0.0010008958
0.001000656
0.0010004373
0.0010000513
1.390723e-07
8.5192653e-06
4.305602e-06
5.5981008e-06
4.066215e-06
4.5840162e-06
4.5257655e-06
4.4909154e-06
4.9357775e-06
4.4679889e-06
4.3517198e-06
4.1739563e-06
4.0820546e-06
4.030807e-06
4.0200443e-06
4.0420042e-06
4.0936451e-06
4.1577528e-06
4.2607399e-06
4.3942932e-06
4.5592977e-06
4.757292e-06
4.9912237e-06
5.2642468e-06
5.5811658e-06
5.9467703e-06
6.3680537e-06
6.8330634e-06
7.3862017e-06
8.0241874e-06
8.761487e-06
9.6165522e-06
1.0611968e-05
1.1776137e-05
1.3142974e-05
1.4754523e-05
1.6664792e-05
1.8939754e-05
2.1662855e-05
2.4938049e-05
2.8891891e-05
3.3683866e-05
3.9506942e-05
4.6598912e-05
5.5252867e-05
6.6382242e-05
7.9429496e-05
9.5424513e-05
0.00011504892
0.00013914371
0.00017033085
0.00020697434
0.0002520522
0.00030752249
0.00037940558
0.0004640988
0.00056847064
0.00069715316
0.00085591051
0.0010124709
0.0010118372
0.0010111761
0.001010474
0.0010097287
0.0010089373
0.0010080936
0.0010071883
0.0010062125
0.0010051663
0.0010040826
0.0010032108
0.0010025196
0.0010019774
0.0010015534
0.0010012147
0.0010009266
0.0010006783
0.0010004826
0.0010003192
0.00099995067
1.2982288e-07
8.2166574e-06
3.6874213e-06
4.8634833e-06
3.6159618e-06
4.0414145e-06
4.0089962e-06
3.8526319e-06
4.1273942e-06
3.7497966e-06
3.6407352e-06
3.5230103e-06
3.466726e-06
3.4469767e-06
3.4619681e-06
3.4933904e-06
3.5585707e-06
3.6533351e-06
3.7769024e-06
3.9295209e-06
4.1126578e-06
4.3283295e-06
4.5798625e-06
4.8706688e-06
5.1941721e-06
5.5750396e-06
6.0119011e-06
6.5128655e-06
7.0881453e-06
7.7499265e-06
8.5130741e-06
9.3968092e-06
1.0424666e-05
1.1626147e-05
1.3037523e-05
1.4702404e-05
1.6677703e-05
1.9032519e-05
2.1853751e-05
2.5251546e-05
2.9357554e-05
3.4339317e-05
4.0402385e-05
4.779526e-05
5.6827632e-05
6.7879642e-05
8.2142374e-05
9.8878713e-05
0.00011942269
0.00014466694
0.00017568726
0.00021586582
0.00026314707
0.00032135228
0.00039301704
0.00048584368
0.00059541743
0.00073051145
0.00089716774
0.001012053
0.0010113836
0.0010106802
0.0010099375
0.0010091519
0.0010083212
0.0010074408
0.0010065027
0.0010054994
0.0010044422
0.0010034644
0.0010026959
0.0010020894
0.0010016168
0.0010012533
0.0010009687
0.0010007205
0.0010004962
0.0010003285
0.0010001987
0.00099992405
1.2188857e-07
7.3922596e-06
3.2378117e-06
4.206367e-06
3.2153805e-06
3.4092053e-06
3.5513886e-06
3.2681151e-06
3.3968512e-06
3.1265073e-06
3.0393918e-06
2.9692786e-06
2.9455657e-06
2.9543058e-06
2.9784212e-06
3.0399558e-06
3.1299111e-06
3.2470795e-06
3.3915403e-06
3.564229e-06
3.7671213e-06
4.002493e-06
4.2658821e-06
4.5744081e-06
4.9272981e-06
5.3302279e-06
5.7900383e-06
6.3151431e-06
6.9159777e-06
7.6055117e-06
8.3990981e-06
9.3167873e-06
1.0383192e-05
1.1629298e-05
1.303755e-05
1.4751988e-05
1.6787946e-05
1.9218136e-05
2.2266403e-05
2.5810882e-05
3.0098981e-05
3.5306244e-05
4.16519e-05
4.9397835e-05
5.8869594e-05
7.0470355e-05
8.4694994e-05
0.00010215114
0.00012468968
0.00015125119
0.00018390678
0.00022407429
0.00027609291
0.00033741897
0.00041294517
0.00051092404
0.00062644353
0.00076887649
0.000944573
0.0010116204
0.0010109147
0.0010101722
0.0010093919
0.0010085693
0.0010077019
0.0010067868
0.0010058192
0.0010048001
0.0010037627
0.0010029211
0.0010022458
0.001001715
0.0010013049
0.001000994
0.001000759
0.001000552
0.0010003519
0.0010002151
0.001000133
0.00099997258
1.1548441e-07
5.3651185e-06
2.8526139e-06
3.6108417e-06
2.8670857e-06
2.8262918e-06
3.0951155e-06
2.7385868e-06
2.7697007e-06
2.5945687e-06
2.536484e-06
2.50545e-06
2.5040786e-06
2.5319945e-06
2.591818e-06
2.6794519e-06
2.7929694e-06
2.9321492e-06
3.0977989e-06
3.291284e-06
3.5098943e-06
3.7644872e-06
4.0551903e-06
4.3860409e-06
4.7618779e-06
5.1885836e-06
5.6733243e-06
6.2248507e-06
6.8539354e-06
7.5575184e-06
8.3795871e-06
9.3286366e-06
1.0430284e-05
1.1716629e-05
1.3227827e-05
1.5014087e-05
1.7137505e-05
1.9675819e-05
2.2725511e-05
2.6405817e-05
3.0864822e-05
3.6546272e-05
4.3212406e-05
5.1358641e-05
6.1327454e-05
7.3544756e-05
8.8534669e-05
0.00010694273
0.00013075224
0.00015878374
0.00019326268
0.00023568574
0.0002907007
0.00035550092
0.00043533222
0.00053371206
0.00066118628
0.00081183801
0.00099766993
0.001011175
0.0010104321
0.0010096534
0.0010088387
0.0010079829
0.0010070823
0.0010061355
0.0010051415
0.0010041132
0.0010031844
0.0010024477
0.0010018576
0.0010013936
0.0010010402
0.0010007744
0.0010005805
0.0010004135
0.0010002449
0.0010001397
0.001000104
0.00099999726
1.102634e-07
3.9886433e-06
2.5067424e-06
3.060028e-06
2.4301511e-06
2.3360099e-06
2.6176994e-06
2.2677924e-06
2.2490249e-06
2.1482996e-06
2.122387e-06
2.1182974e-06
2.1463381e-06
2.2057999e-06
2.2925577e-06
2.4042279e-06
2.5400944e-06
2.7006218e-06
2.8844574e-06
3.0975507e-06
3.3409176e-06
3.6173923e-06
3.9304338e-06
4.2842561e-06
4.6839479e-06
5.1356485e-06
5.6468156e-06
6.2172298e-06
6.8731033e-06
7.6218814e-06
8.4808578e-06
9.4715191e-06
1.0620949e-05
1.1963163e-05
1.3540814e-05
1.5407069e-05
1.762803e-05
2.0285958e-05
2.3483222e-05
2.7346882e-05
3.203443e-05
3.7740126e-05
4.503685e-05
5.3622828e-05
6.4137447e-05
7.7031101e-05
9.2858582e-05
0.00011230454
0.00013621361
0.00016711328
0.0002035753
0.00024845384
0.00030371659
0.0003752811
0.00045979546
0.00056397451
0.00069909266
0.00085874461
0.0010114829
0.0010107191
0.0010099394
0.0010091273
0.0010082807
0.0010073954
0.001006466
0.0010054914
0.0010044841
0.0010034822
0.0010026838
0.0010020412
0.0010015277
0.0010011219
0.0010008174
0.0010005939
0.0010004308
0.0010002928
0.0010001606
0.0010000861
0.0010000813
0.0010000222
1.0469039e-07
3.5241308e-06
2.1409449e-06
2.5519227e-06
2.071667e-06
1.925411e-06
2.1305097e-06
1.8572411e-06
1.8281458e-06
1.7841043e-06
1.7860256e-06
1.8139952e-06
1.8745254e-06
1.9612833e-06
2.0718353e-06
2.2052631e-06
2.3617777e-06
2.5405505e-06
2.7462842e-06
2.9801047e-06
3.2445381e-06
3.5426508e-06
3.8781131e-06
4.2553114e-06
4.6795154e-06
5.1570894e-06
5.6894705e-06
6.2959795e-06
6.9840406e-06
7.7681293e-06
8.6664557e-06
9.701758e-06
1.0902639e-05
1.2305064e-05
1.3954307e-05
1.5907062e-05
1.8233739e-05
2.1021629e-05
2.4379326e-05
2.8441101e-05
3.3373684e-05
3.9668303e-05
4.7070322e-05
5.6125937e-05
6.7223161e-05
8.0838112e-05
9.7557709e-05
0.00011810617
0.00014470559
0.00017604405
0.00021460681
0.00026208671
0.00032057057
0.00039632847
0.00048581819
0.00059616824
0.00073937808
0.00090864228
0.0010110423
0.0010102546
0.0010094421
0.0010085993
0.0010077228
0.0010068106
0.0010058585
0.0010048617
0.0010038417
0.0010029568
0.0010022526
0.0010016934
0.0010012503
0.0010009002
0.0010006349
0.0010004485
0.0010003113
0.0010001961
0.0010000934
0.0010000512
0.0010000669
0.0010000387
1.0061806e-07
3.0394762e-06
1.8252694e-06
2.040434e-06
1.7754976e-06
1.5752704e-06
1.6834902e-06
1.5120705e-06
1.4993569e-06
1.4999318e-06
1.529502e-06
1.5909187e-06
1.6781981e-06
1.7878166e-06
1.9188327e-06
2.0714467e-06
2.2456144e-06
2.4444251e-06
2.6694576e-06
2.9230369e-06
3.2079435e-06
3.5274296e-06
3.8853065e-06
4.2860846e-06
4.7351721e-06
5.2355612e-06
5.800559e-06
6.4376767e-06
7.1589976e-06
7.9796849e-06
8.9189846e-06
1.0000951e-05
1.1255868e-05
1.2721768e-05
1.4446493e-05
1.6490216e-05
1.8928177e-05
2.1852791e-05
2.5379488e-05
2.9650437e-05
3.5071124e-05
4.1451825e-05
4.9247514e-05
5.8791562e-05
7.0492937e-05
8.485569e-05
0.0001025002
0.00012419247
0.00015223705
0.00018532516
0.00022605517
0.00027621788
0.00033802758
0.00041806896
0.00051270366
0.00062944806
0.00078099291
0.00096024973
0.0010106008
0.001009788
0.0010089464
0.0010080767
0.0010071731
0.001006234
0.0010052623
0.0010042681
0.0010032837
0.0010025114
0.0010018883
0.0010013966
0.0010010129
0.0010007176
0.0010004856
0.0010003313
0.0010002158
0.0010001175
0.001000038
0.001000024
0.0010000574
0.0010000499
9.819824e-08
2.5377751e-06
1.5509509e-06
1.5533135e-06
1.5050225e-06
1.2776077e-06
1.3213414e-06
1.2383906e-06
1.2541425e-06
1.2860463e-06
1.3490307e-06
1.4362555e-06
1.5446778e-06
1.6729619e-06
1.821363e-06
1.9908913e-06
2.1824138e-06
2.3988945e-06
2.642171e-06
2.9147937e-06
3.2196893e-06
3.5602297e-06
3.9403295e-06
4.3645978e-06
4.8385476e-06
5.3688821e-06
5.9638648e-06
6.633768e-06
7.3829543e-06
8.2408064e-06
9.2218016e-06
1.0351393e-05
1.1661664e-05
1.3192906e-05
1.4995571e-05
1.7202551e-05
1.9773612e-05
2.2860937e-05
2.6587414e-05
3.1104699e-05
3.6599662e-05
4.3302215e-05
5.1496522e-05
6.1532558e-05
7.3841622e-05
8.8955624e-05
0.00010752948
0.00013150972
0.00015981968
0.00019465715
0.00023755189
0.00029039492
0.00035889164
0.00043979401
0.00053958284
0.00066275133
0.0008226068
0.0010110099
0.001010168
0.0010093288
0.0010084605
0.0010075667
0.0010066421
0.0010056812
0.0010046835
0.00100368
0.0010028277
0.0010021383
0.0010015866
0.001001149
0.0010008104
0.0010005701
0.0010003641
0.0010002357
0.0010001399
0.0010000575
0.00099999828
0.001000006
0.0010000554
0.0010000583
9.8220389e-08
2.041568e-06
1.3200372e-06
1.1801332e-06
1.2362334e-06
1.0298842e-06
1.0563752e-06
1.036795e-06
1.0811768e-06
1.1424331e-06
1.2291511e-06
1.3355401e-06
1.4605396e-06
1.6043024e-06
1.7678913e-06
1.9528077e-06
2.1605832e-06
2.3937834e-06
2.654587e-06
2.9456554e-06
3.2700012e-06
3.6310746e-06
4.0328752e-06
4.4801115e-06
4.978421e-06
5.5346692e-06
6.1573485e-06
6.8570788e-06
7.64723e-06
8.544712e-06
9.5709048e-06
1.0752894e-05
1.2124821e-05
1.3729633e-05
1.5621114e-05
1.7866386e-05
2.0549002e-05
2.3772951e-05
2.7666958e-05
3.2390426e-05
3.8140306e-05
4.515897e-05
5.3742975e-05
6.4259852e-05
7.7161302e-05
9.3774403e-05
0.00011339297
0.00013751163
0.0001671826
0.00020370644
0.00024868917
0.00030697198
0.00037580688
0.0004606948
0.00056545533
0.00070158566
0.00086264883
0.0010106081
0.0010097535
0.0010088893
0.0010079968
0.0010070784
0.0010061335
0.0010051633
0.0010041731
0.0010031996
0.0010024443
0.0010018294
0.0010013401
0.0010009533
0.0010006549
0.0010004246
0.0010002675
0.0010001558
0.0010000769
0.0010000116
0.00099997326
0.00099999662
0.0010000532
0.001000057
1.0150129e-07
1.5841122e-06
1.1306619e-06
9.0801743e-07
1.0799182e-06
8.2539734e-07
8.746035e-07
8.999287e-07
9.6677669e-07
1.0507462e-06
1.1544255e-06
1.2754012e-06
1.4140676e-06
1.5714215e-06
1.7489331e-06
1.9483185e-06
2.171528e-06
2.4205928e-06
2.6981474e-06
3.006833e-06
3.3497266e-06
3.7303508e-06
4.1527918e-06
4.6218657e-06
5.1433477e-06
5.724282e-06
6.3734004e-06
7.1016928e-06
7.9230389e-06
8.8550706e-06
9.9201061e-06
1.1146492e-05
1.2569994e-05
1.4235633e-05
1.6199801e-05
1.8532903e-05
2.1322492e-05
2.4677149e-05
2.8731217e-05
3.3650645e-05
3.991082e-05
4.7282541e-05
5.6297804e-05
6.7341821e-05
8.0888302e-05
9.7521054e-05
0.0001179602
0.00014309435
0.00017401748
0.00021406937
0.0002613144
0.00031952195
0.00039128425
0.00047982123
0.00059488465
0.00073096028
0.00089920083
0.0010102291
0.0010093616
0.0010084799
0.0010075704
0.001006632
0.001005663
0.0010046682
0.0010036772
0.001002822
0.0010021319
0.0010015767
0.0010011344
0.001000787
0.0010005327
0.0010003217
0.0010001867
0.0010000899
0.0010000218
0.00099997152
0.00099995346
0.00099999301
0.0010000576
0.0010000612
1.0819791e-07
1.2370241e-06
9.6812843e-07
7.6515052e-07
7.7118866e-07
7.0582185e-07
7.5201715e-07
8.1250953e-07
8.9614734e-07
9.9581066e-07
1.112207e-06
1.2452541e-06
1.3960169e-06
1.5658063e-06
1.7562116e-06
1.9690059e-06
2.2061725e-06
2.4699214e-06
2.7627278e-06
3.0873768e-06
3.4470289e-06
3.845308e-06
4.2864259e-06
4.7753592e-06
5.3180946e-06
5.9198517e-06
6.5927262e-06
7.3467341e-06
8.2035871e-06
9.1701721e-06
1.0274817e-05
1.1547248e-05
1.3024943e-05
1.4755013e-05
1.6796427e-05
1.9222702e-05
2.2125189e-05
2.5617089e-05
2.9838359e-05
3.4961787e-05
4.1200462e-05
4.8817006e-05
5.8134787e-05
6.95502e-05
8.3553389e-05
0.00010074766
0.00012296202
0.00014914575
0.00018135208
0.00022099351
0.00026981722
0.00032999075
0.00040420384
0.00050051344
0.00061447967
0.00075534795
0.0009296509
0.0010098871
0.0010090045
0.0010081065
0.0010071852
0.001006239
0.0010052661
0.001004272
0.0010032953
0.0010025224
0.0010018901
0.0010013828
0.0010009779
0.0010006597
0.0010004383
0.0010002393
0.0010001202
0.0010000374
0.00099997448
0.00099993444
0.00099992921
0.00099997801
0.0010000486
0.0010000556
1.2260192e-07
1.2090978e-06
8.0965547e-07
5.6808164e-07
6.1267543e-07
6.1549111e-07
6.794191e-07
7.5835071e-07
8.5522487e-07
9.6679371e-07
1.0940731e-06
1.2378745e-06
1.3994883e-06
1.5803198e-06
1.7819854e-06
2.0062852e-06
2.2552326e-06
2.5310793e-06
2.836351e-06
3.1738923e-06
3.5469272e-06
3.959146e-06
4.4148287e-06
4.9190228e-06
5.4777947e-06
6.0985749e-06
6.7906167e-06
7.5655846e-06
8.438301e-06
9.4276395e-06
1.0557599e-05
1.1858652e-05
1.336927e-05
1.5137826e-05
1.7224848e-05
1.9705764e-05
2.2674245e-05
2.6246265e-05
3.0565077e-05
3.5807344e-05
4.2190779e-05
5.0341633e-05
5.9948292e-05
7.1713805e-05
8.6142498e-05
0.00010385482
0.00012561662
0.00015237364
0.00018529499
0.00022582551
0.00027575907
0.00034043435
0.00041693401
0.00051136547
0.00062804936
0.00077238701
0.00095113287
0.0010096103
0.0010087096
0.0010077913
0.0010068517
0.0010058901
0.0010049082
0.0010039221
0.001003011
0.0010022925
0.0010017079
0.0010012397
0.0010008659
0.0010005702
0.0010003495
0.0010001901
0.0010000607
0.00099999857
0.0009999378
0.00099990495
0.00099990464
0.00099995089
0.001000018
0.0010000357
1.1490478e-07
7.1608906e-07
6.413067e-07
4.7026798e-07
5.1333641e-07
5.5926481e-07
6.3801987e-07
7.303876e-07
8.3776916e-07
9.5948883e-07
1.0966298e-06
1.2502374e-06
1.4216289e-06
1.6122668e-06
1.8238023e-06
2.0580825e-06
2.3171753e-06
2.6033617e-06
2.919277e-06
3.2678137e-06
3.6522639e-06
4.0763868e-06
4.5445334e-06
5.0618254e-06
5.6344107e-06
6.2698153e-06
6.9774103e-06
7.7690183e-06
8.6667444e-06
9.6788191e-06
1.0834575e-05
1.2165246e-05
1.3710211e-05
1.551894e-05
1.7653277e-05
2.0190243e-05
2.3225426e-05
2.6877135e-05
3.12915e-05
3.6648718e-05
4.3170729e-05
5.113058e-05
6.0863946e-05
7.2785192e-05
8.740415e-05
0.00010534978
0.00012739848
0.00015586554
0.00018946949
0.00023083222
0.00028178585
0.00034460316