/*--------------------------------*- C++ -*----------------------------------*\
| =========                 |                                                 |
| \\      /  F ield         | OpenFOAM: The Open Source CFD Toolbox           |
|  \\    /   O peration     | Version:  2512                                  |
|   \\  /    A nd           | Website:  www.openfoam.com                      |
|    \\/     M anipulation  |                                                 |
\*---------------------------------------------------------------------------*/
FoamFile
{
    version     2.0;
    format      ascii;
    arch        "LSB;label=32;scalar=64";
    class       volScalarField;
    location    "0.15";
    object      omega;
}
// * * * * * * * * * * * * * * * * * * * * * * * * * * * * * * * * * * * * * //

dimensions      [0 0 -1 0 0 0 0];

internalField   nonuniform List<scalar> 
16000
(
1457.706
1942.7628
1080.0854
643.72511
452.91126
315.34237
239.06156
180.35512
145.34545
117.68342
100.07094
85.667739
75.021218
66.106455
58.834554
52.702383
47.524179
43.105749
39.307957
36.019454
33.156768
30.649317
28.438971
26.479415
24.733261
23.171431
21.769838
20.509882
19.375794
18.35319
17.429045
16.593091
15.837148
15.154289
14.538603
13.984596
13.487094
13.041215
12.642875
12.288637
11.974634
11.696783
11.452119
11.23794
11.05118
10.888716
10.748123
10.6271
10.52344
10.43505
10.360052
10.296805
10.243775
10.199618
10.16316
10.133501
10.11004
10.092526
10.08125
10.076857
10.077297
10.077302
10.076715
10.07578
10.074377
10.072447
10.069918
10.066719
10.062759
10.057908
10.051952
10.044478
10.035187
10.025979
10.019011
10.014146
10.01146
10.018261
10.012152
10.026928
1472.2463
1921.1201
1070.612
643.71814
453.21351
318.25682
240.18086
182.25279
146.19434
118.72759
100.62361
86.240526
75.388161
66.424863
59.065143
52.881812
47.655793
43.201801
39.376087
36.065366
33.185368
30.665241
28.445866
26.480216
24.729861
23.16534
21.761863
20.500469
19.365466
18.342709
17.418907
16.583431
15.827958
15.145447
14.530018
13.976244
13.47906
13.033522
12.635355
12.28124
11.967604
11.690146
11.445743
11.231813
11.045464
10.883423
10.74322
10.622573
10.519299
10.4313
10.356668
10.293771
10.241074
10.19723
10.161042
10.131569
10.108169
10.090497
10.078598
10.073019
10.072975
10.072927
10.072232
10.071196
10.069708
10.067706
10.065113
10.061856
10.057842
10.052939
10.046966
10.039571
10.030471
10.02184
10.015343
10.010651
10.008939
10.012993
10.012715
10.027685
1473.4479
1908.7593
1056.9568
639.94999
450.05841
318.50721
239.14777
182.46205
145.78164
118.90599
100.48827
86.267401
75.296859
66.33658
58.941714
52.745357
47.507282
43.04715
39.219464
35.909177
33.03159
30.51598
28.30263
26.344266
24.601668
23.045278
21.649836
20.396104
19.268407
18.252954
17.336385
16.507802
15.758808
15.082269
14.472349
13.923664
13.431286
12.990316
12.596296
12.245882
11.93588
11.661871
11.420551
11.209359
11.025657
10.866061
10.728056
10.609376
10.507873
10.42148
10.348265
10.286623
10.235028
10.192156
10.156808
10.128022
10.105137
10.087787
10.075895
10.069722
10.06907
10.068889
10.068038
10.066849
10.065223
10.063096
10.060389
10.057025
10.052911
10.04791
10.04186
10.034481
10.025523
10.017537
10.011552
10.007336
10.006084
10.009093
10.012959
10.027845
1492.0672
1905.317
1046.3019
636.38371
446.51372
318.57435
237.82363
182.53277
145.22862
118.98531
100.30111
86.232524
75.164364
66.201063
58.777941
52.570246
47.323351
42.859474
39.032244
35.724683
32.851506
30.34228
28.136647
26.187218
24.453908
22.907112
21.521128
20.276422
19.157247
18.150209
17.241965
16.421323
15.679825
15.010217
14.40671
13.863949
13.377131
12.941458
12.552323
12.206216
11.900389
11.630366
11.392653
11.18461
11.003924
10.847118
10.711615
10.595162
10.495643
10.411044
10.3394
10.279142
10.22875
10.18693
10.15249
10.12445
10.102126
10.085128
10.073331
10.066854
10.065524
10.065157
10.064118
10.062744
10.060946
10.058663
10.055813
10.052314
10.048075
10.042955
10.0368
10.029424
10.020592
10.013252
10.007814
10.004113
10.003083
10.005683
10.01168
10.025197
1503.7762
1911.363
1037.959
632.95497
442.21666
317.89557
235.81844
182.11257
144.30232
118.78791
99.926997
86.021966
74.893866
65.93414
58.499922
52.29169
47.046796
42.588082
38.769256
35.471524
32.60893
30.111556
27.918456
25.982315
24.262253
22.72869
21.355551
20.123052
19.015276
18.01926
17.121801
16.311415
15.579612
14.919001
14.323848
13.788812
13.309195
12.880353
12.497612
12.15714
11.85666
11.591723
11.358681
11.154677
10.977791
10.824488
10.69212
10.578445
10.481372
10.398968
10.329235
10.270646
10.221695
10.181121
10.147754
10.120604
10.098967
10.082438
10.070858
10.064243
10.062363
10.061748
10.060489
10.058892
10.056887
10.054413
10.051387
10.047721
10.043327
10.038065
10.031772
10.024373
10.015754
10.009062
10.004202
10.001013
10.000134
10.002711
10.010264
10.020541
1511.1547
1926.174
1033.9249
630.18589
438.33749
316.59185
233.34219
181.28555
143.1142
118.35403
99.410751
85.657993
74.504843
65.552997
58.122025
51.922722
46.6889
42.242952
38.439203
35.157374
32.310659
29.829872
27.653509
25.734352
24.031031
22.513938
21.156666
19.93925
18.845504
17.862884
16.978467
16.180458
15.460373
14.81066
14.225647
13.7
13.229103
12.808473
12.433507
12.099928
11.805856
11.546965
11.319557
11.120393
10.947985
10.798803
10.670115
10.559695
10.465451
10.38558
10.318036
10.261352
10.214032
10.174857
10.142689
10.116541
10.095688
10.07971
10.068435
10.061808
10.059514
10.058604
10.057093
10.055246
10.053003
10.050309
10.047078
10.043219
10.038645
10.033225
10.026773
10.01931
10.011045
10.005007
10.000748
9.9980619
9.9973396
9.9999788
10.008357
10.016967
1531.0391
1946.744
1033.8291
627.53088
434.53271
314.65853
230.7825
180.08447
141.79309
117.69065
98.761587
85.13927
73.993216
65.055152
57.640627
51.45995
46.246185
41.820757
38.038682
34.778979
31.953636
29.494381
27.339273
25.440527
23.757661
22.260514
20.922359
19.723132
18.646288
17.679652
16.810734
16.027406
15.321239
14.684485
14.111543
13.597085
13.136553
12.725603
12.359848
12.034663
11.748118
11.496236
11.275445
11.081967
10.914715
10.770259
10.645783
10.539084
10.448036
10.371016
10.305921
10.251358
10.205847
10.168209
10.137354
10.112305
10.092324
10.076972
10.066071
10.059531
10.056948
10.055703
10.053915
10.051789
10.049282
10.046341
10.042881
10.038807
10.034029
10.028435
10.021822
10.01423
10.00654
10.001154
9.9975042
9.9953163
9.9947752
9.9974381
10.005946
10.013027
1544.1841
1970.4033
1034.707
624.51619
430.6991
312.0769
228.16152
178.64372
140.31728
116.80612
97.994537
84.473351
73.359021
64.441746
57.05505
50.902178
45.717023
41.319867
37.56525
34.333859
31.535502
29.102824
26.973869
25.097084
23.438547
21.965073
20.649549
19.471908
18.415155
17.467379
16.616693
15.850606
15.1608
14.539289
13.980555
13.479268
13.030924
12.631272
12.276191
11.96166
11.683812
11.439879
11.226655
11.039823
10.878366
10.739194
10.619431
10.516886
10.429358
10.355467
10.293047
10.24079
10.197235
10.161249
10.131797
10.107926
10.088888
10.074224
10.063749
10.057368
10.054607
10.052997
10.05091
10.048486
10.045693
10.042482
10.038773
10.034465
10.029466
10.023681
10.016932
10.009158
10.002281
9.9975473
9.9945007
9.9928106
9.9925006
9.9951425
10.003235
10.009955
1553.0408
1994.8095
1031.4777
620.70014
425.75867
308.80301
224.53646
176.80385
138.4244
115.74333
97.104135
83.658093
72.594532
63.707543
56.359898
50.243404
45.095497
40.734976
37.010706
33.813758
31.048359
28.647658
26.550652
24.704688
23.074949
21.629334
20.340261
19.187801
18.154484
17.228518
16.398811
15.652512
14.981484
14.377451
13.834986
13.34876
12.914327
12.527518
12.184274
11.88055
11.612734
11.377767
11.173048
10.994353
10.839316
10.705926
10.59141
10.493411
10.409691
10.339163
10.279601
10.229796
10.188316
10.154069
10.126085
10.103447
10.085409
10.071484
10.06147
10.055292
10.05244
10.050446
10.048043
10.045305
10.042209
10.038711
10.034736
10.030183
10.024949
10.018953
10.012113
10.004353
9.9983132
9.9942312
9.9917712
9.9905735
9.9905482
9.9931601
10.000662
10.007077
1568.08
2017.9647
1021.8994
615.82565
419.10682
305.11896
220.14866
174.52554
136.58224
114.48685
96.080617
82.688172
71.691739
62.844554
55.547066
49.47066
44.367581
40.052564
36.373253
33.219348
30.49459
28.132319
26.072945
24.262311
22.666135
21.252733
19.994114
18.870623
17.864305
16.963288
16.157393
15.433557
14.783844
14.199625
13.675569
13.206348
12.787563
12.415137
12.085165
11.793666
11.536943
11.311798
11.116152
10.945487
10.797577
10.67043
10.562026
10.468928
10.389321
10.322336
10.265778
10.218532
10.179211
10.146759
10.12028
10.098909
10.081904
10.068758
10.059234
10.053275
10.050388
10.048004
10.045272
10.042211
10.038801
10.035004
10.030751
10.025943
10.020474
10.014252
10.007321
9.9999267
9.9946765
9.991238
9.9893395
9.9886231
9.9889251
9.9914846
9.9982282
10.004453
1580.3365
2039.0815
1011.6656
609.90898
410.8022
301.02782
215.61144
172.02513
134.61544
113.05112
94.910874
81.556598
70.638774
61.83204
54.593743
48.578712
43.534301
39.276331
35.650711
32.548469
29.87205
27.554996
25.539469
23.769994
22.212437
20.835792
19.611877
18.521355
17.54582
16.673115
15.89366
15.195027
14.569237
14.007211
13.503721
13.053433
12.652006
12.295429
11.97997
11.701738
11.457128
11.242735
11.05686
10.894952
10.754633
10.633882
10.531243
10.443398
10.368487
10.305178
10.251777
10.20716
10.170047
10.139417
10.114453
10.094353
10.078394
10.066054
10.057043
10.051298
10.048394
10.045623
10.042558
10.039169
10.035439
10.031337
10.026798
10.021731
10.016032
10.0096
10.002521
9.9958946
9.9914038
9.9885916
9.9872228
9.9869677
9.987623
9.9901413
9.996079
10.001907
1592.7304
2059.5025
996.87816
602.34175
401.23611
296.51499
210.87739
169.27563
132.62616
111.43619
93.567166
80.232411
69.39729
60.662852
53.502836
47.563681
42.591471
38.402453
34.841062
31.79995
29.180323
26.915665
24.950413
23.228118
21.714691
20.379209
19.194495
18.141179
17.200412
16.359743
15.608071
14.937411
14.338204
13.8008
13.32006
12.890637
12.508264
12.168978
11.869257
11.605325
11.373709
11.171582
10.995955
10.843198
10.7109
10.596911
10.500253
10.417685
10.34714
10.287634
10.237734
10.195828
10.160946
10.132138
10.108669
10.089822
10.074897
10.063371
10.054898
10.049352
10.046403
10.043262
10.039861
10.036146
10.032098
10.027688
10.022863
10.017534
10.011609
10.005031
9.9978605
9.9922742
9.9885145
9.9863047
9.9854298
9.9856051
9.9866199
9.9891249
9.9943362
9.999648
1605.0098
2077.848
978.25606
593.89479
391.38011
291.60223
206.07265
166.3261
130.58114
109.62096
91.983504
78.697942
67.971294
59.330113
52.267139
46.421212
41.535705
37.428894
33.943033
30.972827
28.41913
26.214788
24.306135
22.637473
21.174338
19.882798
18.741951
17.730296
16.828398
16.02404
15.306071
14.666062
14.095906
13.585348
13.129289
12.72235
12.360398
12.039484
11.756343
11.507408
11.289119
11.098577
10.933681
10.790442
10.666501
10.559983
10.469285
10.392105
10.326148
10.270333
10.223544
10.184621
10.152013
10.125013
10.102995
10.085355
10.07143
10.060703
10.052796
10.047446
10.044367
10.040878
10.037146
10.033112
10.028752
10.024039
10.018932
10.013349
10.007196
10.000533
9.9937945
9.9890712
9.9860165
9.9843799
9.9839622
9.9845262
9.9858843
9.9884132
9.9930448
9.9980304
1617.1463
2090.2939
955.72708
584.87439
381.02457
286.32982
201.27362
163.18056
128.4098
107.5087
90.142314
76.941036
66.346958
57.824774
50.879944
45.146125
40.363651
36.353154
32.955483
30.06627
27.58846
25.453409
23.605523
21.997125
20.591328
19.35347
18.261777
17.296566
16.437795
15.673319
14.991795
14.384982
13.845682
13.363835
12.934071
12.55091
12.210459
11.908739
11.642731
11.409227
11.204763
11.026318
10.872164
10.738487
10.622822
10.523121
10.438385
10.36654
10.30557
10.253559
10.209757
10.173401
10.143287
10.118115
10.097494
10.080994
10.068015
10.05804
10.050713
10.045604
10.042249
10.038437
10.034385
10.030044
10.025384
10.020378
10.014992
10.009174
10.002829
9.996034
9.9902367
9.9863045
9.9839059
9.9828088
9.9828146
9.9837182
9.9853835
9.9880009
9.992141
9.9968318
1629.3405
2091.5152
929.48898
575.21493
370.28634
280.72542
196.55441
159.75746
125.99025
105.10461
88.014982
74.943044
64.511148
56.136243
49.333566
43.733142
39.072279
35.173009
31.877963
29.077471
26.68591
24.63048
22.857715
21.31766
19.976163
18.797667
17.760436
16.845775
16.034004
15.312823
14.67069
14.099289
13.590803
13.138947
12.736654
12.378158
12.059945
11.777989
11.529421
11.311531
11.120982
10.955485
10.811964
10.687729
10.580422
10.487714
10.40872
10.34182
10.285216
10.237399
10.196596
10.162604
10.134601
10.111456
10.092217
10.076775
10.064678
10.055381
10.048597
10.043825
10.040026
10.035913
10.031555
10.026921
10.021978
10.016696
10.011043
10.004994
9.9985601
9.9919786
9.9871833
9.9839733
9.9821714
9.9815744
9.9819743
9.9831673
9.9850729
9.9878644
9.9918267
9.9962766
1641.7066
2070.104
899.80214
564.94573
359.20227
274.79451
191.90852
155.92839
123.24477
102.36314
85.571007
72.680664
62.447352
54.253082
47.620463
42.176798
37.659158
33.883019
30.706743
28.016079
25.724921
23.760462
22.071708
20.608225
19.337567
18.224647
17.246906
16.384649
15.622871
14.947549
14.346801
13.812926
13.338366
12.916918
12.542589
12.209021
11.913192
11.651108
11.419835
11.217389
11.040165
10.886224
10.753212
10.638173
10.539058
10.453849
10.38052
10.318375
10.265736
10.221585
10.184114
10.152411
10.126277
10.104866
10.087172
10.072727
10.061446
10.052752
10.046387
10.041881
10.037694
10.033287
10.028643
10.023733
10.018525
10.01299
10.007095
10.00083
9.9943175
9.9885858
9.984621
9.9820712
9.9807975
9.980654
9.9814186
9.9828632
9.9849287
9.987902
9.9918985
9.9962302
1654.3277
2034.8188
868.83431
554.11193
347.82842
268.44921
187.02699
151.66448
120.05817
99.235165
82.775438
70.128267
60.139091
52.165489
45.734297
40.468274
36.117818
32.49612
29.459578
26.894624
24.71834
22.856625
21.261231
19.882195
18.685921
17.64324
16.729542
15.925403
15.215557
14.58774
14.029438
13.533504
13.092731
12.701421
12.354615
12.045677
11.771857
11.529449
11.315184
11.127795
10.963659
10.820849
10.697773
10.591455
10.499817
10.421205
10.353932
10.296378
10.247434
10.206588
10.172041
10.142876
10.118445
10.098565
10.082211
10.068864
10.058327
10.050193
10.044132
10.039766
10.035242
10.030556
10.025644
10.020478
10.015026
10.00926
10.003157
9.9967671
9.9903994
9.9857445
9.9825374
9.9805838
9.9797673
9.9800221
9.981113
9.9827859
9.9849579
9.9880631
9.9922405
9.9965746
1667.0307
2003.6888
837.28916
542.63736
336.16574
261.14821
181.98156
146.85957
116.31296
95.660206
79.591382
67.260863
57.571028
49.866021
43.664106
38.621142
34.471935
31.029837
28.155011
25.733322
23.685356
21.937497
20.440449
19.152749
18.038803
17.069714
16.222212
15.477341
14.819955
14.239614
13.723725
13.265467
12.858099
12.496029
12.174491
11.889371
11.636693
11.413366
11.216544
11.043522
10.892021
10.759767
10.64593
10.547852
10.463274
10.390663
10.328541
10.275551
10.230455
10.192596
10.160703
10.133775
10.111176
10.092627
10.077491
10.065159
10.055311
10.047726
10.041903
10.037477
10.032676
10.027725
10.022566
10.017166
10.011491
10.005521
9.9992467
9.9927909
9.987252
9.9834046
9.9808903
9.9794868
9.9790652
9.9796543
9.9810163
9.9828924
9.9851766
9.9883737
9.9926802
9.9970943
1679.3156
1955.7612
804.66271
530.21577
324.10958
252.65397
176.57227
141.39178
111.89532
91.574604
75.984741
64.058705
54.726802
47.343314
41.438596
36.661107
32.748367
29.512965
26.820177
24.557662
22.645769
21.021291
19.632882
18.440168
17.410332
16.516031
15.734997
15.049262
14.443536
13.907959
13.433262
13.011374
12.636183
12.302649
12.00647
11.743739
11.51094
11.305064
11.123564
10.964163
10.824798
10.70343
10.598132
10.507638
10.429622
10.362607
10.305237
10.256323
10.214795
10.179682
10.150193
10.125338
10.10447
10.087095
10.073
10.061509
10.052366
10.045314
10.039783
10.03504
10.030012
10.024816
10.019425
10.013813
10.007939
10.001791
9.995457
9.9892336
9.984699
9.9815455
9.97962
9.9787286
9.9786869
9.9795256
9.9810938
9.9831259
9.9855333
9.9887979
9.9930903
9.9975243
1690.3783
1893.8974
770.38289
516.34236
310.89083
242.79709
170.47655
135.11501
106.70261
86.921026
71.933598
60.507771
51.629357
44.650451
39.09852
34.630335
30.98761
27.982034
25.483767
23.392962
21.630227
20.134087
18.856653
17.760099
16.814015
15.993189
15.276493
14.64639
14.091104
13.599782
13.164037
12.776562
12.431601
12.124534
11.851634
11.609623
11.395315
11.205796
11.038677
10.891726
10.763101
10.651194
10.554609
10.470984
10.398953
10.337057
10.284012
10.238707
10.200187
10.167903
10.140525
10.117484
10.098144
10.082018
10.068842
10.058072
10.049479
10.042849
10.037565
10.032507
10.027275
10.021861
10.016256
10.010447
10.004411
9.9981135
9.9917196
9.9864566
9.9826777
9.9801355
9.9786787
9.9781931
9.9785431
9.9796042
9.9813168
9.9834424
9.9859612
9.9893021
9.9935147
9.9978851
1699.0111
1836.0564
733.4893
500.40975
296.77994
231.36461
163.22179
127.86431
100.66463
81.678502
67.44174
56.657782
48.347537
41.851435
36.706709
32.583598
29.236668
26.474142
24.185862
22.272999
20.661894
19.295244
18.128217
17.125781
16.260318
15.509348
14.852497
14.276392
13.768089
13.317672
12.918023
12.562397
12.245483
11.962937
11.711336
11.487982
11.290416
11.115691
10.961721
10.826338
10.707687
10.604814
10.515338
10.437983
10.371315
10.314042
10.264944
10.222996
10.187344
10.157249
10.131778
10.110329
10.092347
10.077358
10.065016
10.054888
10.046735
10.04038
10.035242
10.029922
10.024502
10.018903
10.01311
10.007107
10.000928
9.9946587
9.9885608
9.9842165
9.981125
9.9791325
9.9780797
9.977877
9.9785802
9.9798367
9.9816569
9.983828
9.9864083
9.9898054
9.9939301
9.9981534
1702.4363
1775.0933
693.75364
480.68483
281.55711
218.03728
154.34065
119.51689
93.797558
75.909136
62.604747
52.624666
44.982761
39.034836
34.337715
30.581636
27.540032
25.034309
22.958176
21.223185
19.761298
18.520374
17.459577
16.54686
15.756976
15.069918
14.469525
13.942244
13.477095
13.063938
12.696913
12.370055
12.078569
11.818442
11.586331
11.37963
11.196965
11.035339
10.892979
10.768053
10.65876
10.563372
10.48046
10.408667
10.346736
10.293536
10.247967
10.208915
10.175907
10.147794
10.123977
10.103886
10.087058
10.073105
10.061505
10.051971
10.044223
10.038027
10.032878
10.027351
10.021743
10.015981
10.010047
10.003896
9.9975308
9.9911964
9.986128
9.9824343
9.9799319
9.9784355
9.9777744
9.9777162
9.9787294
9.9801578
9.9820638
9.9842763
9.9868993
9.9903107
9.9943522
9.9983785
1695.8985
1708.3525
650.63986
454.83925
265.04605
202.48251
143.61409
110.12224
86.272378
69.754522
57.615261
48.558475
41.654347
36.294571
32.066766
28.686152
25.948962
23.697639
21.828544
20.264239
18.943705
17.82058
16.858584
16.029143
15.309609
14.68201
14.132002
13.647836
13.21978
12.83995
12.501829
12.200347
11.931255
11.691063
11.476815
11.285972
11.116356
10.96616
10.833646
10.717266
10.615546
10.526973
10.449868
10.38305
10.325295
10.27558
10.233235
10.196906
10.165887
10.139531
10.117189
10.098268
10.08249
10.069265
10.058294
10.049271
10.041958
10.035936
10.030544
10.024876
10.01909
10.013154
10.007078
10.000875
9.994591
9.9885117
9.9842131
9.9810898
9.9790356
9.9779001
9.9775425
9.9779584
9.978933
9.9805119
9.9824799
9.9847446
9.987423
9.9908136
9.9947226
9.9985085
1673.3714
1630.6778
604.38735
422.16491
247.27272
184.53208
131.30055
100.03103
78.450549
63.543129
52.692766
44.621244
38.481831
33.720256
29.962272
26.950615
24.504814
22.494519
20.819149
19.41234
18.220784
17.204071
16.330649
15.575543
14.91873
14.344103
13.838872
13.39316
12.998321
12.647415
12.334444
12.054926
11.805058
11.581733
11.382334
11.204617
11.04661
10.906534
10.782771
10.673827
10.578395
10.495649
10.423582
10.361123
10.307164
10.260692
10.220798
10.186651
10.157393
10.132463
10.111454
10.093618
10.078567
10.065952
10.055463
10.046861
10.039783
10.033892
10.028332
10.02256
10.016653
10.010573
10.004318
9.9979317
9.9916528
9.9865162
9.9827564
9.9801348
9.9784779
9.9776523
9.9774261
9.9781154
9.9792197
9.9808619
9.9828606
9.985162
9.9878993
9.9912875
9.9950946
9.9986642
1626.7048
1538.0289
556.19167
383.446
229.35542
164.49746
118.1142
89.876183
70.785028
57.591518
48.054779
40.967157
35.577305
31.392826
28.082504
25.419558
23.245769
21.448815
19.947192
18.679954
17.601702
16.677655
15.88074
15.189527
14.586746
14.05815
13.591294
13.178235
12.811285
12.484996
12.193382
11.932515
11.698982
11.489993
11.303191
11.13655
10.988289
10.856803
10.740615
10.63835
10.548716
10.470494
10.402504
10.34346
10.292388
10.248323
10.21045
10.178218
10.150569
10.126964
10.106864
10.089821
10.075413
10.063273
10.053204
10.044815
10.037881
10.032025
10.026305
10.020437
10.014452
10.008324
10.002045
9.9956656
9.9894925
9.9849917
9.9816814
9.9794445
9.978106
9.9775377
9.9774217
9.9783317
9.9795252
9.9812002
9.9831998
9.9855043
9.9882504
9.9915936
9.9953007
9.9987176
1547.9176
1434.7718
507.18217
343.47872
205.43763
145.23195
104.98507
80.331411
63.71812
52.202964
43.90957
37.746089
33.047445
29.385229
26.473811
24.118918
22.185295
20.576865
19.224186
18.076322
17.09426
16.248293
15.515149
14.876366
14.317065
13.825118
13.390533
13.005033
12.661898
12.355535
12.081306
11.835566
11.61525
11.41783
11.241163
11.083398
10.942895
10.818158
10.707796
10.6105
10.525044
10.450349
10.385704
10.329503
10.280885
10.238939
10.202853
10.17189
10.145389
10.122702
10.10335
10.086902
10.07307
10.061361
10.051518
10.04329
10.036419
10.030535
10.024652
10.018651
10.01254
10.006309
9.9999746
9.9936646
9.9880023
9.9839134
9.9809494
9.9789902
9.9778847
9.9775227
9.9777344
9.9785319
9.9798277
9.9815129
9.9835093
9.9858037
9.9885109
9.9917354
9.9952922
9.9986421
1439.7668
1390.0518
461.37191
295.96054
181.73225
127.20683
93.145422
71.892625
57.610794
47.662643
40.469118
35.104989
30.992864
27.765743
25.181794
23.077188
21.337837
19.882147
18.649578
17.59797
16.693685
15.911085
15.229932
14.634037
14.110273
13.647905
13.23805
12.873395
12.548003
12.257403
11.996679
11.762643
11.552487
11.363909
11.194949
11.043915
10.9093
10.789733
10.683936
10.590692
10.508831
10.437208
10.374699
10.320373
10.273285
10.232589
10.197516
10.167403
10.141784
10.119822
10.101083
10.085124
10.071573
10.060112
10.050451
10.042339
10.035518
10.02961
10.023615
10.017504
10.011273
10.004926
9.9985079
9.9922328
9.9870392
9.9832403
9.9805326
9.9787745
9.9778302
9.9775413
9.977913
9.9787782
9.9801049
9.9818019
9.9838046
9.9861067
9.9887803
9.9918764
9.995256
9.9985409
1313.2896
1219.0341
421.83099
253.75388
159.75241
112.20975
83.36147
65.085661
52.787879
44.164865
37.882147
33.154416
29.496745
26.600463
24.261667
22.341605
20.743195
19.396843
18.251543
17.269107
16.420513
15.683168
15.039182
14.474105
13.976067
13.535195
13.143465
12.794133
12.481639
12.201387
11.949615
11.723184
11.519515
11.336446
11.172144
11.025014
10.89364
10.776727
10.673067
10.58153
10.501097
10.431036
10.369792
10.31653
10.270332
10.230378
10.195913
10.166255
10.140795
10.118996
10.100374
10.084509
10.07103
10.05962
10.049997
10.041912
10.03511
10.029208
10.023208
10.017071
10.010798
10.004387
9.9978937
9.9915844
9.9866164
9.9829678
9.9803956
9.9787534
9.977917
9.9776888
9.9780956
9.9789997
9.9803387
9.9820399
9.9840512
9.9863613
9.989001
9.991983
9.9952116
9.9984583
1202.7982
1094.8629
389.57509
223.27334
143.3403
101.18658
76.116721
60.127171
49.337786
41.707279
36.091675
31.825691
28.494898
25.835119
23.670627
21.881048
20.381579
19.111041
18.024347
17.087611
16.274864
15.565824
14.944365
14.397529
13.9152
13.487063
13.105869
12.765248
12.459966
12.185672
11.938775
11.716316
11.515849
11.335329
11.173023
11.027428
10.897203
10.781123
10.678035
10.586843
10.506494
10.435976
10.374325
10.320611
10.273965
10.233574
10.198695
10.16865
10.142831
10.120692
10.101755
10.085595
10.071844
10.060178
10.050318
10.042013
10.035016
10.028988
10.023094
10.017033
10.010863
10.004567
9.9981934
9.9919682
9.9868885
9.9831956
9.9805866
9.9789234
9.9780769
9.9778476
9.9782555
9.9791523
9.9804843
9.9821821
9.9842009
9.9865192
9.9891352
9.992036
9.9951611
9.9983979
1156.948
1040.9081
365.76267
206.36276
132.56183
93.682466
70.698185
56.170255
46.385519
39.456175
34.341154
30.4379
27.377402
24.923427
22.918786
21.255426
19.856996
18.668253
17.648397
16.766721
15.999684
15.328893
14.739682
14.22012
13.760325
13.352024
12.988207
12.66297
12.371349
12.109205
11.873104
11.66021
11.468178
11.295058
11.139205
10.999198
10.873782
10.761811
10.662214
10.57397
10.496096
10.427642
10.367694
10.31538
10.269875
10.23041
10.196275
10.166824
10.141471
10.119695
10.101032
10.085074
10.071464
10.059888
10.050075
10.04178
10.034764
10.028689
10.022725
10.016604
10.010376
10.00403
9.9976236
9.9914248
9.9865978
9.9830288
9.9805135
9.9789032
9.9780722
9.977831
9.9782999
9.9791776
9.9805036
9.9821949
9.9842158
9.9865378
9.9891432
9.9920091
9.9950975
9.9983554
37043.946
79697.377
39474.908
10038.128
1234.1051
612.05793
435.25454
350.30688
288.62225
234.51282
191.37266
158.56947
134.09863
115.88301
101.93653
90.597587
80.985799
72.745235
65.667608
59.559817
54.249606
49.600795
45.507986
41.885964
38.66971
35.79479
33.215965
30.893396
28.795338
26.896719
25.176156
23.614594
22.195393
20.903908
19.728643
18.659933
17.689078
16.808369
16.010764
15.289853
14.640054
14.05583
13.532134
13.064413
12.648191
12.279247
11.953759
11.667703
11.417406
11.199524
11.010788
10.848086
10.708444
10.589339
10.48826
10.402988
10.333192
10.278705
10.239462
10.217947
10.210793
10.208897
10.206981
10.204271
10.201127
10.197592
10.193177
10.186604
10.177282
10.16738
10.152109
10.141218
10.11213
10.098624
10.067319
10.073796
10.013729
10.03471
9.9878577
10.009514
22234.67
69687.833
27815.646
4629.8356
940.5094
532.30556
399.23917
321.32984
262.89363
211.83329
173.92186
145.29149
124.16291
108.35952
95.998031
85.672194
76.830915
69.242268
62.711673
57.051911
52.108544
47.76408
43.926232
40.519224
37.481319
34.759539
32.312515
30.102987
28.102923
26.289768
24.643791
23.147332
21.785061
20.543499
19.412362
18.382706
17.44641
16.59631
15.8258
15.128885
14.500347
13.934879
13.427741
12.974619
12.571211
12.213496
11.897824
11.620278
11.37736
11.165853
10.98259
10.824563
10.688904
10.573197
10.475014
10.392127
10.323833
10.270661
10.232628
10.212336
10.205791
10.204071
10.202177
10.199523
10.196457
10.192999
10.188976
10.183073
10.174425
10.164914
10.150227
10.139474
10.111136
10.097926
10.066714
10.07386
10.013834
10.035108
9.9886183
10.010176
24192.646
49294.914
16436.43
2359.0127
831.80604
505.82158
387.74248
306.10387
250.46736
201.15271
166.47888
139.37643
119.65236
104.74871
92.967131
83.035233
74.548116
67.272461
61.005121
55.564813
50.807245
46.622329
42.922137
39.634076
36.697429
34.064991
31.696638
29.556063
27.617252
25.858562
24.260953
22.807434
21.483353
20.275817
19.17523
18.172954
17.261189
16.433082
15.682259
15.00297
14.390212
13.838798
13.344192
12.902219
12.508682
12.159694
11.851716
11.580893
11.343855
11.13747
10.95864
10.804433
10.672072
10.559233
10.463412
10.382558
10.315518
10.263358
10.226254
10.206894
10.200802
10.199233
10.19738
10.194795
10.191812
10.188431
10.184598
10.179388
10.171447
10.162351
10.148279
10.137594
10.110151
10.097115
10.066051
10.073732
10.013965
10.035492
9.9893546
10.010849
32034.006
27386.691
8471.9787
1493.9245
759.78399
482.1845
374.15629
291.24085
239.29346
190.63165
159.48843
133.5541
115.33673
101.27637
90.070043
80.528076
72.387023
65.405636
59.384418
54.149887
49.566568
45.530986
41.959471
38.782663
35.943069
33.392884
31.098136
29.022638
27.141934
25.435075
23.883682
22.47137
21.184098
20.009507
18.938647
17.963111
17.075408
16.268959
15.537597
14.875798
14.278751
13.741371
13.259323
12.828551
12.444957
12.104783
11.80459
11.540585
11.309524
11.108354
10.934044
10.783742
10.654827
10.544833
10.451446
10.372671
10.307082
10.255959
10.219815
10.2014
10.195774
10.194363
10.192554
10.190046
10.18715
10.183851
10.180062
10.175445
10.168243
10.159589
10.146164
10.13555
10.109017
10.096184
10.06532
10.073429
10.014108
10.035867
9.9900908
10.011507
36416.34
20068.521
5445.2242
1267.7864
722.27508
461.22303
363.3468
278.88242
230.99717
182.51553
154.42441
128.9306
112.03579
98.502356
87.72561
78.474242
70.60734
63.855486
58.026918
52.954658
48.510135
44.594593
41.127344
38.041404
35.281232
32.801617
30.566683
28.546038
26.714758
25.052303
23.540799
22.164314
20.909286
19.76377
18.719349
17.767732
16.901695
16.114869
15.401243
14.755478
14.172912
13.648532
13.17818
12.757888
12.383636
12.051782
11.75897
11.501449
11.276099
11.079928
10.909971
10.763455
10.637842
10.530624
10.439611
10.362867
10.29882
10.248674
10.213451
10.195787
10.190741
10.18948
10.187722
10.185297
10.182491
10.179276
10.175572
10.171279
10.164843
10.156659
10.143905
10.133374
10.107741
10.095165
10.064521
10.072961
10.014265
10.036232
9.9908236
10.01207
38527.833
16941.185
3881.8922
1186.0228
697.66145
441.69644
355.41271
268.69357
224.47705
175.8048
150.38305
124.9444
109.28739
96.084882
85.684484
76.675131
69.044322
62.486262
56.821677
51.888411
47.563468
43.75175
40.375002
37.36823
34.677678
32.259525
30.077995
28.10598
26.318637
24.695898
23.220248
21.876125
20.650376
19.531399
18.511246
17.581674
16.735711
15.967152
15.270111
14.639412
14.070512
13.558449
13.099229
12.688949
12.323657
11.999812
11.714126
11.462889
11.243093
11.051802
10.88612
10.743383
10.620929
10.516442
10.427775
10.353042
10.290653
10.241445
10.207123
10.190241
10.185715
10.184582
10.182883
10.180546
10.177834
10.174706
10.17108
10.16691
10.161234
10.153549
10.141492
10.131057
10.106291
10.094075
10.063649
10.072327
10.014432
10.036584
9.991555
10.012619
39862.405
14163.96
3102.0934
1134.4992
680.37935
427.61917
349.5763
260.32878
219.35306
170.35956
147.13414
121.54289
107.00992
93.983433
83.914123
75.100788
67.67104
61.275747
55.750253
50.935639
46.71347
42.991464
39.693296
36.7556
34.126056
31.762142
29.62942
27.699404
25.951038
24.363859
22.920486
21.605639
20.406505
19.31177
18.313901
17.404646
16.577279
15.825714
15.14417
14.527613
13.971595
13.471185
13.022548
12.621815
12.2651
11.948952
11.670135
11.424975
11.210576
11.024057
10.862626
10.723458
10.60412
10.502324
10.415971
10.343227
10.282577
10.234286
10.200848
10.184791
10.180695