/*--------------------------------*- C++ -*----------------------------------*\
| =========                 |                                                 |
| \\      /  F ield         | OpenFOAM: The Open Source CFD Toolbox           |
|  \\    /   O peration     | Version:  2512                                  |
|   \\  /    A nd           | Website:  www.openfoam.com                      |
|    \\/     M anipulation  |                                                 |
\*---------------------------------------------------------------------------*/
FoamFile
{
    version     2.0;
    format      ascii;
    arch        "LSB;label=32;scalar=64";
    class       volScalarField;
    location    "0.15";
    object      p;
}
// * * * * * * * * * * * * * * * * * * * * * * * * * * * * * * * * * * * * * //

dimensions      [1 -1 -2 0 0 0 0];

internalField   nonuniform List<scalar> 
16000
(
89595.578
89721.322
89733.239
89867.21
89893.44
90020.301
90070.797
90187.103
90260.853
90371.608
90463.536
90574.272
90680.23
90795.32
90912.32
91034.781
91161.324
91292.554
91428.353
91568.81
91713.938
91863.744
92018.213
92177.304
92340.952
92509.063
92681.514
92858.15
93038.783
93223.19
93411.116
93602.269
93796.32
93992.911
94191.649
94392.109
94593.844
94796.378
94999.22
95201.863
95403.792
95604.488
95803.438
96000.135
96194.089
96384.832
96571.923
96754.949
96933.535
97107.344
97276.079
97439.483
97597.344
97749.49
97895.792
98036.158
98170.536
98298.908
98421.288
98537.722
98648.282
98753.064
98852.182
98945.775
99033.994
99117.008
99194.998
99268.158
99336.691
99400.807
99460.719
99516.663
99568.903
99617.628
99662.957
99705.446
99751.119
99759.339
99872.177
99766.191
89227.933
89370.626
89380.094
89526.15
89553.996
89691.815
89744.732
89872.357
89949.998
90070.914
90169.3
90289.042
90403.384
90527.412
90653.75
90785.777
90922.299
91063.803
91210.21
91361.575
91517.896
91679.153
91845.299
92016.261
92191.934
92372.183
92556.836
92745.69
92938.502
93134.993
93334.846
93537.706
93743.183
93950.849
94160.247
94370.89
94582.267
94793.846
95005.085
95215.431
95424.333
95631.245
95835.636
96036.993
96234.832
96428.698
96618.175
96802.887
96982.501
97156.731
97325.335
97488.118
97644.93
97795.665
97940.254
98078.671
98210.922
98337.042
98457.098
98571.181
98679.402
98781.889
98878.787
98970.254
99056.46
99137.585
99213.816
99285.35
99352.387
99415.134
99473.8
99528.618
99579.818
99627.531
99672.078
99714.922
99753.223
99781.206
99860.035
99784.62
88892.657
89050.806
89059.996
89219.35
89247.422
89398.98
89453.728
89593.69
89676.305
89807.782
89914.01
90043.406
90167.39
90301.359
90438.21
90580.974
90728.66
90881.63
91039.818
91203.241
91371.867
91545.643
91724.486
91908.279
92096.875
92290.087
92487.693
92689.427
92894.985
93104.019
93316.14
93530.92
93747.891
93966.551
94186.369
94406.784
94627.221
94847.088
95065.791
95282.737
95497.344
95709.05
95917.317
96121.642
96321.56
96516.652
96706.543
96890.914
97069.493
97242.063
97408.455
97568.552
97722.28
97869.609
98010.547
98145.137
98273.451
98395.586
98511.663
98621.819
98726.207
98824.992
98918.343
99006.441
99089.471
99167.621
99241.084
99310.056
99374.734
99435.317
99492.01
99545.029
99594.566
99640.771
99684.18
99725.439
99761.085
99796.651
99854.304
99801.553
88594.488
88763.464
88773.371
88948.119
88975.652
89143.472
89200.492
89354.753
89443.209
89586.752
89702.253
89842.61
89977.798
90123.099
90271.904
90426.793
90586.982
90752.715
90923.934
91100.621
91282.718
91470.137
91662.756
91860.413
92062.907
92269.991
92481.374
92696.718
92915.636
93137.696
93362.421
93589.291
93817.749
94047.204
94277.039
94506.62
94735.298
94962.425
95187.36
95409.479
95628.181
95842.904
96053.123
96258.365
96458.208
96652.289
96840.302
97022.003
97197.206
97365.782
97527.656
97682.8
97831.235
97973.017
98108.238
98237.018
98359.5
98475.845
98586.229
98690.837
98789.865
98883.508
98971.962
99055.426
99134.097
99208.17
99277.841
99343.299
99404.735
99462.337
99516.298
99566.807
99614.03
99658.166
99699.728
99738.656
99772.953
99810.129
99854.325
99818.272
88336.086
88519.896
88526.667
88720.055
88746.501
88932.56
88991.736
89162.045
89257.553
89414.524
89541.017
89693.454
89841.274
89999.062
90160.981
90329.122
90502.922
90682.536
90867.915
91059.009
91255.727
91457.936
91665.458
91878.067
92095.484
92317.381
92543.374
92773.025
93005.846
93241.297
93478.791
93717.702
93957.367
94197.098
94436.188
94673.922
94909.588
95142.488
95371.949
95597.332
95818.042
96033.539
96243.34
96447.029
96644.256
96834.744
97018.283
97194.731
97364.008
97526.096
97681.027
97828.881
97969.779
98103.873
98231.343
98352.387
98467.221
98576.068
98679.155
98776.714
98868.976
98956.163
99038.493
99116.18
99189.427
99258.432
99323.386
99384.474
99441.872
99495.756
99546.298
99593.659
99637.991
99679.519
99718.591
99754.839
99787.696
99823.901
99858.51
99835.311
88120.372
88321.681
88326.618
88540.867
88566.368
88772.662
88834.239
89022.34
89126.105
89297.175
89435.812
89600.801
89762.169
89933.313
90109.361
90291.917
90480.594
90675.461
90876.437
91083.418
91296.245
91514.71
91738.546
91967.432
92200.984
92438.759
92680.254
92924.905
93172.093
93421.151
93671.364
93921.983
94172.231
94421.317
94668.446
94912.832
95153.714
95390.363
95622.097
95848.294
96068.396
96281.92
96488.461
96687.696
96879.384
97063.365
97239.553
97407.936
97568.563
97721.542
97867.027
98005.215
98136.332
98260.628
98378.369
98489.831
98595.296
98695.043
98789.345
98878.472
98962.681
99042.219
99117.317
99188.193
99255.056
99318.1
99377.507
99433.449
99486.088
99535.582
99582.076
99625.702
99666.607
99704.997
99741.012
99774.288
99805.255
99838.814
99866.172
99853.406
87947.499
88169.617
88171.873
88410.692
88435.299
88665.797
88730.404
88937.726
89049.649
89234.273
89386.167
89564.547
89741.023
89927.237
90119.288
90318.273
90523.883
90736.08
90954.712
91179.588
91410.452
91646.99
91888.819
92135.49
92386.484
92641.212
92899.023
93159.199
93420.97
93683.517
93945.984
94207.492
94467.148
94724.065
94977.375
95226.242
95469.88
95707.567
95938.651
96162.567
96378.841
96587.091
96787.036
96978.489
97161.355
97335.625
97501.369
97658.723
97807.886
97949.103
98082.657
98208.862
98328.049
98440.56
98546.742
98646.939
98741.487
98830.712
98914.924
98994.417
99069.468
99140.336
99207.256
99270.448
99330.115
99386.441
99439.595
99489.732
99536.998
99581.524
99623.425
99662.811
99699.823
99734.594
99767.086
99797.152
99825.787
99855.496
99876.893
99873.529
87811.91
88058.481
88056.562
88324.924
88346.35
88603.188
88670.888
88897.375
89021.264
89222.257
89391.295
89586.048
89780.757
89985.027
90195.921
90414.113
90639.335
90871.446
91110.208
91355.318
91606.402
91863.006
92124.598
92390.567
92660.222
92932.796
93207.456
93483.304
93759.396
94034.748
94308.357
94579.216
94846.331
95108.74
95365.53
95615.856
95858.955
96094.159
96320.906
96538.745
96747.339
96946.468
97136.022
97315.995
97486.477
97647.64
97799.732
97943.056
98077.965
98204.845
98324.106
98436.171
98541.466
98640.413
98733.425
98820.9
98903.215
98980.726
99053.765
99122.641
99187.638
99249.014
99307.001
99361.811
99413.633
99462.637
99508.974
99552.778
99594.171
99633.257
99670.119
99704.85
99737.572
99768.31
99796.908
99823.583
99849.458
99874.423
99890.783
99896.191
87712.788
87987.767
87981.548
88286.047
88301.909
88587.578
88661.273
88909.987
89050.846
89270.468
89460.134
89674.048
89889.962
90115.319
90348.012
90588.365
90836.079
91090.888
91352.425
91620.238
91893.786
92172.431
92455.446
92742.011
93031.22
93322.091
93613.575
93904.573
94193.949
94480.556
94763.252
95040.921
95312.501
95576.997
95833.51
96081.245
96319.533
96547.833
96765.745
96973.004
97169.48
97355.17
97530.186
97694.745
97849.149
97993.775
98129.055
98255.464
98373.504
98483.692
98586.551
98682.595
98772.327
98856.231
98934.764
99008.357
99077.412
99142.298
99203.354
99260.886
99315.174
99366.464
99414.977
99460.906
99504.421
99545.67
99584.782
99621.868
99657.022
99690.316
99721.805
99751.569
99779.693
99806.064
99830.513
99853.678
99876.313
99895.814
99908.124
99921.916
87653.535
87961.637
87952.01
88293.698
88308.897
88627.236
88712.494
88986.409
89147.121
89387.433
89601.369
89837.64
90078.033
90327.889
90585.704
90851.492
91124.854
91405.353
91692.439
91985.454
92283.631
92586.093
92891.854
93199.835
93508.87
93817.722
94125.103
94429.698
94730.187
95025.273
95313.709
95594.32
95866.039
96127.916
96379.15
96619.092
96847.259
97063.335
97267.166
97458.752
97638.236
97805.885
97962.072
98107.261
98241.981
98366.812
98482.368
98589.279
98688.176
98779.686
98864.415
98942.947
99015.833
99083.591
99146.702
99205.608
99260.713
99312.381
99360.939
99406.681
99449.868
99490.724
99529.446
99566.205
99601.144
99634.386
99666.032
99696.168
99724.856
99752.136
99778.041
99802.639
99825.946
99847.718
99867.892
99887.493
99906.428
99919.992
99929.213
99950.913
87641.171
87988.605
87974.988
88357.323
88376.419
88730.927
88830.799
89132.004
89318.338
89582.177
89824.64
90087.231
90355.891
90634.124
90920.79
91215.619
91518.029
91827.351
92142.774
92463.359
92788.036
93115.611
93444.781
93774.148
94102.245
94427.556
94748.547
95063.698
95371.537
95670.671
95959.82
96237.85
96503.793
96756.869
96996.497
97222.296
97434.088
97631.881
97815.856
97986.348
98143.819
98288.84
98422.061
98544.19
98655.973
98758.174
98851.558
98936.878
99014.864
99086.212
99151.583
99211.592
99266.811
99317.762
99364.923
99408.724
99449.55
99487.743
99523.606
99557.403
99589.365
99619.687
99648.535
99676.049
99702.342
99727.507
99751.616
99774.725
99796.866
99818.046
99838.284
99857.628
99876
99893.059
99908.968
99925.005
99939.836
99947.33
99954.448
99983.341
87682.49
88076.682
88059.245
88489.681
88513.926
88907.783
89027.036
89357.435
89575.12
89865.85
90141.314
90434.84
90736.114
91047.122
91366.835
91694.655
92029.713
92371.005
92717.363
93067.462
93419.84
93772.909
94124.983
94474.306
94819.084
95157.523
95487.874
95808.47
96117.774
96414.416
96697.226
96965.262
97217.824
97454.462
97674.968
97879.369
98067.903
98240.991
98399.214
98543.277
98673.98
98792.19
98898.815
98994.78
99081.007
99158.399
99227.827
99290.121
99346.062
99396.377
99441.737
99482.755
99519.989
99553.94
99585.056
99613.733
99640.321
99665.123
99688.402
99710.385
99731.263
99751.194
99770.308
99788.708
99806.476
99823.671
99840.338
99856.499
99872.153
99887.283
99901.9
99916.017
99929.439
99941.801
99953.588
99966.092
99976.473
99978.093
99984.236
100019.49
87778.232
88227.873
88207.102
88692.197
88724.997
89162.637
89309.174
89671.542
89927.984
90250.597
90564.412
90894.495
91233.567
91582.398
91939.822
92304.818
92676.091
93052.173
93431.41
93811.99
94191.963
94569.28
94941.827
95307.472
95664.118
96009.758
96342.528
96660.766
96963.052
97248.244
97515.501
97764.293
97994.392
98205.856
98399.004
98574.38
98732.716
98874.893
99001.902
99114.807
99214.715
99302.746
99380.009
99447.583
99506.506
99557.757
99602.256
99640.853
99674.331
99703.401
99728.706
99750.823
99770.266
99787.488
99802.886
99816.806
99829.545
99841.356
99852.454
99863.018
99873.195
99883.102
99892.826
99902.436
99911.977
99921.476
99930.948
99940.382
99949.747
99959.009
99968.173
99977.192
99985.758
99993.584
100001.51
100010.52
100016.16
100012.36
100018.75
100059.56
87934.82
88450.261
88427.121
88974.503
89021.924
89507.508
89690.54
90088.413
90391.478
90752.354
91110.652
91483.808
91866.629
92258.815
92658.79
93064.943
93475.388
93888.044
94300.646
94710.782
95115.943
95513.572
95901.135
96276.19
96636.463
96979.92
97304.827
97609.8
97893.832
98156.303
98396.977
98615.971
98813.723
98990.945
99148.573
99287.718
99409.614
99515.573
99606.948
99685.095
99751.348
99806.995
99853.264
99891.308
99922.201
99946.931
99966.402
99981.43
99992.751
100001.02
100006.82
100010.65
100012.97
100014.16
100014.55
100014.42
100014.01
100013.51
100013.08
100012.85
100012.93
100013.37
100014.23
100015.53
100017.3
100019.52
100022.18
100025.24
100028.63
100032.33
100036.32
100040.47
100044.38
100047.97
100052.39
100057.94
100058.71
100050.34
100058.23
100103.04
88159.176
88753.475
88730.446
89348.424
89417.863
89955.361
90186.121
90624.641
90983.345
91390.914
91801.14
92224.846
92657.916
93098.992
93545.831
93996.053
94447.004
94895.835
95339.537
95775.019
96199.184
96609.033
97001.761
97374.859
97726.2
98054.099
98357.352
98635.254
98887.577
99114.54
99316.758
99495.177
99651.009
99785.666
99900.695
99997.722
100078.4
100144.38
100197.27
100238.58
100269.79
100292.22
100307.14
100315.68
100318.87
100317.65
100312.85
100305.19
100295.33
100283.83
100271.18
100257.82
100244.09
100230.3
100216.71
100203.52
100190.91
100179
100167.91
100157.7
100148.43
100140.12
100132.78
100126.41
100120.98
100116.46
100112.8
100109.94
100107.8
100106.33
100105.51
100105.09
100104.68
100104.46
100105.75
100107.84
100103.8
100092.21
100102.7
100149.29
88458.331
89146.968
89126.489
89824.735
89927.626
90522.861
90815.893
91303.441
91728.25
92192.745
92663.206
93145.074
93634.44
94128.829
94625.068
95119.78
95609.331
96089.935
96557.767
97009.094
97440.419
97848.617
98231.055
98585.678
98911.054
99206.396
99471.526
99706.83
99913.182
100091.86
100244.44
100372.74
100478.71
100564.37
100631.76
100682.88
100719.64
100743.86
100757.26
100761.4
100757.72
100747.53
100732
100712.17
100688.97
100663.21
100635.61
100606.79
100577.28
100547.53
100517.92
100488.79
100460.4
100432.96
100406.65
100381.6
100357.93
100335.69
100314.93
100295.69
100277.96
100261.73
100246.96
100233.63
100221.68
100211.04
100201.65
100193.41
100186.23
100180.09
100174.88
100170.29
100165.97
100162.46
100161
100159.62
100150.99
100137.74
100151.82
100197.45
88840.461
89641.781
89628.536
90422.063
90574.818
91237.567
91609.949
92157.332
92659.02
93191.044
93729.71
94276.255
94826.185
95375.63
95920.111
96454.946
96975.334
97476.562
97954.208
98404.333
98823.65
99209.641
99560.615
99875.721
100154.9
100398.8
100608.68
100786.27
100933.68
101053.23
101147.4
101218.72
101269.69
101302.72
101320.14
101324.08
101316.55
101299.37
101274.18
101242.46
101205.53
101164.56
101120.56
101074.42
101026.93
100978.73
100930.4
100882.42
100835.19
100789.04
100744.25
100701.04
100659.57
100619.98
100582.37
100546.79
100513.3
100481.89
100452.57
100425.31
100400.08
100376.82
100355.48
100335.97
100318.22
100302.15
100287.65
100274.63
100263
100252.71
100243.59
100235.27
100227.56
100221.31
100217.43
100212.62
100199.79
100186.27
100204.7
100246.9
89322.795
90262.891
90267.702
91175.929
91396.721
92137.488
92607.002
93225.889
93814.54
94424.13
95037.719
95652.933
96263.756
96864.398
97448.704
98010.624
98544.469
99045.207
99508.692
99931.825
100312.62
100650.22
100944.78
101197.37
101409.81
101584.47
101724.16
101831.9
101910.85
101964.17
101994.94
102006.1
102000.4
101980.38
101948.37
101906.45
101856.51
101800.19
101738.97
101674.12
101606.76
101537.84
101468.18
101398.49
101329.35
101261.26
101194.63
101129.79
101067.02
101006.53
100948.47
100892.98
100840.13
100789.98
100742.55
100697.83
100655.81
100616.44
100579.68
100545.47
100513.72
100484.35
100457.28
100432.4
100409.61
100388.81
100369.89
100352.72
100337.23
100323.34
100310.81
100299.28
100288.75
100280.28
100274.23
100266.18
100249.93
100237.13
100259.84
100298.06
89935.578
91052.395
91086.971
92128.789
92437.051
93264.694
93850.739
94555.135
95240.59
95936.187
96627.764
97309.222
97972.236
98608.938
99211.868
99774.493
100291.52
100759.12
101174.99
101538.34
101849.73
102110.87
102324.41
102493.64
102622.29
102714.34
102773.82
102804.68
102810.72
102795.5
102762.28
102714.06
102653.52
102583.05
102504.74
102420.46
102331.8
102240.14
102146.68
102052.43
101958.24
101864.85
101772.84
101682.73
101594.9
101509.69
101427.36
101348.1
101272.05
101199.32
101129.97
101064.03
101001.5
100942.36
100886.57
100834.08
100784.8
100738.67
100695.58
100655.45
100618.15
100583.58
100551.63
100522.17
100495.1
100470.27
100447.58
100426.9
100408.15
100391.21
100375.8
100361.59
100348.84
100338.63
100330.59
100319.64
100301.14
100289.91
100316.24
100350.66
90712.809
92042.258
92121.373
93317.569
93746.548
94673.321
95397.673
96203.835
96992.766
97775.271
98536.507
99266.789
99955.959
100595.42
101178.3
101699.86
102157.46
102550.56
102880.37
103149.64
103362.17
103522.59
103635.91
103707.34
103742.06
103745.02
103720.89
103673.95
103608.1
103526.82
103433.17
103329.85
103219.21
103103.26
102983.74
102862.12
102739.66
102617.39
102496.21
102376.82
102259.83
102145.72
102034.87
101927.59
101824.1
101724.57
101629.12
101537.82
101450.71
101367.79
101289.04
101214.4
101143.81
101077.19
101014.45
100955.48
100900.16
100848.38
100800.02
100754.93
100713
100674.09
100638.07
100604.8
100574.14
100545.97
100520.15
100496.57
100475.13
100455.68
100437.89
100421.57
100407.17
100395.61
100385.75
100372.36
100352.99
100344.28
100373.26
100403.13
91686.153
93281.055
93441.161
94808.834
95404.116
96445.453
97324.454
98241.237
99125.766
99975.508
100774.23
101510.81
102176.15
102764.28
103272.29
103700.14
104050.2
104326.71
104535.28
104682.36
104774.75
104819.32
104822.69
104791.1
104730.26
104645.33
104540.89
104420.96
104289.02
104148.07
104000.69
103849.05
103694.98
103540.04
103385.48
103232.38
103081.61
102933.85
102789.69
102649.56
102513.82
102382.72
102256.46
102135.15
102018.89
101907.7
101801.57
101700.48
101604.37
101513.16
101426.74
101345.02
101267.86
101195.14
101126.72
101062.45
101002.19
100945.79
100893.1
100843.96
100798.24
100755.77
100716.41
100680.02
100646.45
100615.54
100587.19
100561.27
100537.68
100516.2
100496.54
100478.65
100463.11
100450.51
100439.04
100423.8
100404.72
100399.37
100429.55
100453.48
92937.439
94867.38
95153.049
96712.898
97521.349
98683.823
99710.129
100719.32
101659.45
102521.71
103292.52
103964.56
104534.69
105003.87
105376.29
105658.63
105859.1
105986.77
106050.94
106060.67
106024.49
105950.21
105844.82
105714.48
105564.53
105399.56
105223.47
105039.57
104850.62
104658.9
104466.32
104274.45
104084.54
103897.64
103714.57
103535.99
103362.39
103194.17
103031.62
102874.94
102724.25
102579.63
102441.11
102308.67
102182.26
102061.8
101947.19
101838.31
101735.03
101637.21
101544.68
101457.3
101374.88
101297.27
101224.29
101155.77
101091.53
101031.41
100975.23
100922.84
100874.05
100828.72
100786.68
100747.78
100711.87
100678.79
100648.44
100620.69
100595.4
100572.34
100551.27
100532.29
100516.01
100502.6
100489.78
100473.43
100455.56
100453.42
100482.87
100500.28
94596.022
96939.454
97405.022
99154.001
100209
101474.17
102591.69
103623.87
104533.27
105314.16
105963
106482.64
106880.3
107166.37
107353.03
107453.2
107479.61
107444.32
107358.31
107231.36
107071.97
106887.45
106683.95
106466.65
106239.85
106007.09
105771.25
105534.71
105299.36
105066.74
104838.04
104614.24
104396.06
104184.08
103978.72
103780.27
103588.94
103404.85
103228.05
103058.55
102896.3
102741.22
102593.22
102452.15
102317.86
102190.2
102068.99
101954.04
101845.16
101742.16
101644.84
101553
101466.44
101384.97
101308.38
101236.48
101169.09
101106.01
101047.06
100992.07
100940.85
100893.25
100849.08
100808.2
100770.44
100735.67
100703.76
100674.6
100648
100623.75
100601.69
100582.02
100565.26
100551.17
100537.3
100520.57
100504.52
100504.83
100531.81
100543.95
96847.085
99654.058
100359.7
102244.26
103504.86
104809.86
105899.78
106826.92
107579.11
108162.9
108590.1
108877.06
109042.06
109103.72
109079.73
108986.22
108837.38
108645.42
108420.61
108171.5
107905.12
107627.17
107342.26
107054.09
106765.59
106479.1
106196.43
105919.01
105647.91
105383.96
105127.76
104879.74
104640.21
104409.33
104187.2
103973.83
103769.18
103573.17
103385.68
103206.54
103035.59
102872.63
102717.45
102569.85
102429.59
102296.44
102170.18
102050.58
101937.39
101830.4
101729.36
101634.06
101544.27
101459.78
101380.36
101305.81
101235.93
101170.52
101109.39
101052.34
100999.21
100949.8
100903.97
100861.53
100822.34
100786.26
100753.17
100722.92
100695.35
100670.23
100647.5
100627.42
100610.35
100595.67
100581.03
100564.46
100550.54
100552.85
100576.79
100583.42
99934.921
103118.35
104123.61
106066.64
107360.12
108510.53
109409.03
110081.16
110545.62
110829.71
110961.73
110969.31
110877.49
110708.07
110479.45
110206.82
109902.46
109576.24
109235.95
108887.71
108536.29
108185.41
107837.87
107495.86
107160.98
106834.45
106517.13
106209.63
105912.35
105625.55
105349.35
105083.76
104828.73
104584.15
104349.86
104125.67
103911.35
103706.66
103511.36
103325.17
103147.83
102979.06
102818.57
102666.11
102521.38
102384.12
102254.05
102130.91
102014.44
101904.38
101800.49
101702.51
101610.21
101523.35
101441.72
101365.08
101293.24
101225.99
101163.12
101104.45
101049.79
100998.96
100951.8
100908.15
100867.84
100830.74
100796.73
100765.66
100737.35
100711.62
100688.49
100668.18
100650.85
100635.68
100620.65
100604.82
100593.08
100596.33
100616.25
100619.01
104113.43
107504.5
108704.42
110376.01
111482.22
112293.02
112809.03
113085.59
113167.62
113098.22
112913.65
112643.85
112312.74
111939.05
111537.27
111118.43
110690.9
110260.94
109833.24
109411.23
108997.42
108593.61
108201.07
107820.64
107452.87
107098.07
106756.36
106427.75
106112.12
105809.31
105519.07
105241.14
104975.2
104720.95
104478.05
104246.15
104024.92
103813.99
103613.04
103421.71
103239.68
103066.6
102902.16
102746.04
102597.93
102457.52
102324.52
102198.64
102079.59
101967.12
101860.95
101760.83
101666.5
101577.73
101494.29
101415.95
101342.49
101273.72
101209.42
101149.4
101093.47
101041.47
100993.21
100948.54
100907.31
100869.38
100834.62
100802.88
100773.99
100747.83
100724.42
100703.94
100686.35
100670.8
100655.77
100641.12
100631.34
100634.33
100649.28
100649.32
109307.22
112647.51
113749.47
114856.25
115450.1
115718.92
115727.49
115549.1
115237.44
114834.5
114371.39
113870.98
113349.83
112819.83
112289.44
111764.61
111249.49
110746.9
110258.72
109786.15
109329.88
108890.25
108467.33
108061.02
107671.09
107297.23
106939.04
106596.1
106267.96
105954.16
105654.23
105367.69
105094.1
104832.98
104583.89
104346.4
104120.07
103904.5
103699.27
103504.01
103318.33
103141.87
102974.28
102815.2
102664.32
102521.3
102385.83
102257.62
102136.37
102021.81
101913.65
101811.64
101715.52
101625.04
101539.98
101460.09
101385.18
101315.02
101249.41
101188.16
101131.08
101077.99
101028.73
100983.14
100941.07
100902.38
100866.93
100834.59
100805.2
100778.67
100755.01
100734.32
100716.43
100700.63
100685.96
100672.75
100664.41
100665.84
100675.08
100673.93
115461.3
117951.01
118548.53
118817.11
118713.02
118377.08
117888.19
117306.52
116672.21
116012.42
115345.14
114682.18
114031.18
113396.97
112782.49
112189.42
111618.57
111070.2
110544.18
110040.11
109557.48
109095.63
108653.88
108231.52
107827.8
107442.03
107073.48
106721.48
106385.36
106064.49
105758.25
105466.06
105187.36
104921.6
104668.27
104426.88
104196.96
103978.05
103769.71
103571.54
103383.13
103204.09
103034.06
102872.67
102719.58
102574.46
102437
102306.88
102183.81
102067.49
101957.66
101854.05
101756.4
101664.46
101578
101496.78
101420.59
101349.23
101282.48
101220.15
101162.05
101108.02
101057.88
101011.47
100968.66
100929.29
100893.24
100860.36
100830.53
100803.66
100779.76
100758.81
100740.62
100724.69
100710.55
100698.6
100690.95
100690.15
100694.6
100693.59
122030.43
122463.96
122240.55
121687.49
120953.15
120128.03
119267.66
118403.58
117554.08
116729.22
115934.33
115171.87
114442.59
113746.27
113082.1
112448.94
111845.51
111270.45
110722.41
110200.06
109702.13
109227.41
108774.74
108343.05
107931.32
107538.61
107164.02
106806.71
106465.91
106140.86
105830.88
105535.31
105253.53
104984.95
104729.04
104485.25
104253.09
104032.08
103821.77
103621.73
103431.54
103250.81
103079.16
102916.22
102761.64
102615.09
102476.24
102344.79
102220.42
102102.86
101991.82
101887.04
101788.26
101695.23
101607.72
101525.49
101448.32
101376.02
101308.37
101245.18
101186.26
101131.45
101080.57
101033.48
100990.01
100950.04
100913.43
100880.04
100849.77
100822.55
100798.32
100777.03
100758.49
100742.42
100728.66
100717.51
100710.01
100707.17
100707.99
100707.53
125886.47
125259.44
124340.98
123287.56
122202.56
121129.97
120092.32
119098.85
118152.92
117254.73
116402.93
115595.44
114829.87
114103.77
113414.71
112760.43
112138.76
111547.73
110985.51
110450.39
109940.83
109455.41
108992.81
108551.81
108131.32
107730.28
107347.76
106982.87
106634.77
106302.7
105985.93
105683.8
105395.68
105120.95
104859.06
104609.47
104371.69
104145.22
103929.61
103724.43
103529.26
103343.69
103167.36
102999.88
102840.92
102690.13
102547.18
102411.78
102283.6
102162.37
102047.81
101939.64
101837.61
101741.46
101650.97
101565.89
101486.02
101411.13
101341.03
101275.52
101214.41
101157.53
101104.71
101055.8
101010.65
100969.11
100931.05
100896.34
100864.89
100836.61
100811.44
100789.28
100769.98
100753.4
100739.47
100728.39
100720.55
100716.29
100715.17
100715.33
104020.54
103984.6
104010.92
104037.72
104052.99
104044.75
104012.41
103970.78
103923.19
103864.78
103793.4
103711.9
103623.56
103532.48
103439.02
103343.17
103245.17
103145.35
103043.98
102941.32
102837.6
102733.06
102627.91
102522.34
102416.56
102310.75
102205.09
102099.75
101994.9
101890.7
101787.32
101684.9
101583.61
101483.59
101385
101287.98
101192.67
101099.22
101007.78
100918.48
100831.47
100746.9
100664.9
100585.62
100509.2
100435.77
100365.46
100298.4
100234.72
100174.53
100117.92
100065.01
100015.86
99970.549
99929.124
99891.617
99858.039
99828.382
99802.61
99780.658
99762.436
99747.829
99736.704
99728.894
99724.255
99722.483
99723.611
99726.763
99733.191
99739.35
99751.96
99756.794
99779.898
99774.296
99819.66
99784.853
99869.89
99790.318
99925.032
99796.867
103037.28
103031.1
103054.07
103074.89
103077.64
103076.53
103069.39
103055.79
103032.64
103003.93
102968.73
102928.54
102882.78
102832.36
102777.28
102718.08
102654.93
102588.12
102517.93
102444.65
102368.54
102289.9
102209
102126.13
102041.57
101955.58
101868.44
101780.39
101691.71
101602.63
101513.38
101424.21
101335.34
101246.99
101159.36
101072.68
100987.13
100902.93
100820.26
100739.31
100660.26
100583.31
100508.62
100436.38
100366.75
100299.9
100235.97
100175.12
100117.49
100063.2
100012.38
99965.112
99921.498
99881.605
99845.484
99813.166
99784.66
99759.948
99738.988
99721.708
99708.005
99697.758
99690.826
99687.033
99686.218
99688.089
99692.627
99699.056
99708.41
99717.579
99732.438
99740.315
99764.687
99762.324
99807.661
99776.944
99861.758
99783.689
99923.266
99787.922
102401.79
102396.6
102396.01
102397.95
102393.32
102388.25
102378.69
102368.88
102354.14
102337
102314.74
102289.57
102259.71
102226.46
102189.13
102148.24
102103.73
102055.82
102004.65
101950.38
101893.23
101833.36
101770.99
101706.32
101639.56
101570.93
101500.64
101428.92
101356
101282.1
101207.44
101132.27
101056.8
100981.28
100905.93
100830.97
100756.63
100683.14
100610.72
100539.57
100469.92
100401.98
100335.95
100272.04
100210.44
100151.33
100094.9
100041.32
99990.725
99943.273
99899.091
99858.29
99820.966
99787.192
99757.024
99730.493
99707.606
99688.341
99672.65
99660.453
99651.642
99646.087
99643.64
99644.122
99647.357
99653.063
99661.181
99671.014
99683.434
99695.652
99712.938
99723.765
99749.69
99750.251
99796.047
99768.853
99853.817
99777.175
99920.884
99779.779
101950.51
101938.21
101922.47
101906.7
101891.68
101878.52
101858.56
101840.32
101818.12
101796.68
101771.54
101746.26
101717.92
101688.51
101656.63
101622.97
101587.13
101549.25
101509.24
101467.12
101422.9
101376.63
101328.33
101278.1
101225.99
101172.13
101116.63
101059.62
101001.25
100941.7
100881.13
100819.74
100757.71
100695.26
100632.59
100569.92
100507.47
100445.45
100384.11
100323.65
100264.31
100206.31
100149.87
100095.22
100042.57
99992.117
99944.054
99898.565
99855.819
99815.972
99779.163
99745.515
99715.126
99688.078
99664.427
99644.206
99627.42
99614.044
99604.024
99597.272
99593.678
99593.106
99595.401
99600.38
99607.858
99617.561
99629.401
99642.745
99658.337
99673.65
99693.485
99707.192
99734.867
99738.158
99784.749
99760.664
99846.083
99770.829
99918.057
99772.357
101409.22
101392.84
101374.48
101355.17
101335.07
101318.86
101298.09
101281.14
101259.75
101241.32
101219.23
101198.8
101175.65
101152.8
101128.09
101102.58
101075.61
101047.35
101017.62
100986.38
100953.59
100919.21
100883.22
100845.63
100806.46
100765.74
100723.54
100679.93
100635
100588.86
100541.63
100493.46
100444.49
100394.89
100344.84
100294.52
100244.15
100193.91
100144.04
100094.74
100046.25
99998.782
99952.573
99907.844
99864.813
99823.689
99784.675
99747.961
99713.724
99682.128
99653.317
99627.419
99604.538
99584.755
99568.129
99554.693
99544.45
99537.369
99533.389
99532.419
99534.343
99539.021
99546.295
99555.977
99567.875
99581.723
99597.411
99614.365
99633.215
99651.674
99674.134
99690.678
99720.238
99726.187
99773.736
99752.506
99838.537
99764.681
99914.922
99765.555
100774.66
100764.73
100755.21
100745.35
100732.62
100725.13
100711.29
100702.76
100688.34
100678.14
100663.19
100651.03
100635.69
100621.45
100605.28
100588.73
100570.91
100552.17
100532.24
100511.12
100488.77
100465.14
100440.22
100413.99
100386.44
100357.58
100327.44
100296.05
100263.46
100229.74
100194.97
100159.26
100122.7
100085.44
100047.62
100009.39
99970.938
99932.44
99894.094
99856.106
99818.687
99782.056
99746.43
99712.027
99679.064
99647.747
99618.278
99590.848
99565.636
99542.805
99522.5
99504.849
99489.954
99477.898
99468.736
99462.498
99459.182
99458.75
99461.136
99466.242
99473.949
99484.112
99496.57
99511.132
99527.601
99545.718
99565.358
99586.001
99608.177
99629.823
99654.947
99674.3
99705.84
99714.43
99762.985
99744.445
99831.178
99758.767
99911.627
99759.314
100150.43
100148.37
100146.38
100146.02
100140.46
100141.59
100134.8
100134.92
100127.9
100126.67
100119.44
100115.96
100108.67
100102.98
100095.06
100087
100077.67
100067.66
100056.71
100044.81
100031.94
100018.06
100003.14
99987.174
99970.128
99951.998
99932.787
99912.51
99891.192
99868.874
99845.613
99821.479
99796.558
99770.95
99744.774
99718.162
99691.259
99664.227
99637.24
99610.481
99584.144
99558.429
99533.538
99509.675
99487.043
99465.84
99446.259
99428.482
99412.681
99399.014
99387.619
99378.617
99372.107
99368.164
99366.838
99368.152
99372.093
99378.618
99387.65
99399.088
99412.806
99428.656
99446.472