/*--------------------------------*- C++ -*----------------------------------*\
| =========                 |                                                 |
| \\      /  F ield         | OpenFOAM: The Open Source CFD Toolbox           |
|  \\    /   O peration     | Version:  2512                                  |
|   \\  /    A nd           | Website:  www.openfoam.com                      |
|    \\/     M anipulation  |                                                 |
\*---------------------------------------------------------------------------*/
FoamFile
{
    version     2.0;
    format      ascii;
    arch        "LSB;label=32;scalar=64";
    class       surfaceScalarField;
    location    "0.15";
    object      phi;
}
// * * * * * * * * * * * * * * * * * * * * * * * * * * * * * * * * * * * * * //

dimensions      [1 0 -1 0 0 0 0];

oriented        oriented;

internalField   nonuniform List<scalar> 
31760
(
-0.00064053019
-0.050995884
0.051636227
-0.0016058672
-0.06440539
0.065370653
-0.0025845794
-0.062865546
0.063845539
-0.003604395
-0.068662192
0.069681941
-0.0046776184
-0.070224667
0.071297881
-0.0057797167
-0.074566891
0.07566899
-0.0069517929
-0.077441266
0.078613382
-0.0081627513
-0.081483343
0.082694361
-0.0094340583
-0.085085047
0.086356434
-0.010764157
-0.089217396
0.090547594
-0.012149642
-0.093344949
0.094730555
-0.013602649
-0.097762348
0.099215488
-0.015117399
-0.10233806
0.10385296
-0.016702478
-0.10714338
0.10872863
-0.018357244
-0.11216289
0.11381785
-0.020086561
-0.117415
0.11914453
-0.021893029
-0.12290714
0.12471383
-0.023779869
-0.12865094
0.13053803
-0.025750309
-0.13465737
0.13662809
-0.027807749
-0.14093772
0.14299546
-0.029955621
-0.14750439
0.14965259
-0.032197693
-0.15436935
0.15661178
-0.034537562
-0.16154619
0.16388644
-0.036979143
-0.16904861
0.17149061
-0.039525417
-0.17689113
0.17943786
-0.042180975
-0.18508787
0.18774391
-0.044949721
-0.19365503
0.19642431
-0.047835095
-0.20260923
0.20549518
-0.050840606
-0.21196737
0.2149735
-0.053970319
-0.22174749
0.22487788
-0.057227561
-0.23196851
0.23522649
-0.06061569
-0.24265022
0.24603914
-0.064137546
-0.25381408
0.2573368
-0.06779621
-0.26548118
0.26914078
-0.071593709
-0.27767558
0.28147409
-0.075531741
-0.29042153
0.29436066
-0.079611675
-0.30374473
0.30782586
-0.083834022
-0.31767288
0.32189653
-0.088198633
-0.33223394
0.33659997
-0.092704218
-0.34745939
0.35196652
-0.097348798
-0.36338099
0.36802725
-0.10212896
-0.38003254
0.38481452
-0.10704011
-0.39745012
0.40236325
-0.11207642
-0.41567165
0.42071011
-0.11723014
-0.43473755
0.43989362
-0.12249212
-0.45468953
0.45995404
-0.12785076
-0.47557258
0.48093396
-0.13329309
-0.49743315
0.50287847
-0.13880357
-0.52032143
0.52583514
-0.14436383
-0.54428927
0.54985305
-0.14995281
-0.56939117
0.57498394
-0.15554694
-0.59568521
0.60128345
-0.16111881
-0.62323176
0.62880808
-0.16663741
-0.65209444
0.65761785
-0.17206822
-0.68233974
0.68777574
-0.17737126
-0.71403817
0.71934681
-0.1825024
-0.7472627
0.75239989
-0.18741216
-0.78208987
0.78700614
-0.1920441
-0.8186001
0.82323906
-0.19633601
-0.85687699
0.86117644
-0.20021776
-0.89700777
0.90089765
-0.20361152
-0.93908332
0.9424858
-0.20643
-0.98319907
0.98602691
-0.20857595
-1.0294544
1.0316104
-0.20994072
-1.0779511
1.0793266
-0.21040354
-1.1287957
1.12927
-0.2098283
-1.1820966
1.1815336
-0.20806947
-1.2379643
1.2362184
-0.20495993
-1.2965177
1.2934217
-0.20031207
-1.3578769
1.3532432
-0.1939229
-1.4221642
1.4157898
-0.18557228
-1.4895025
1.4811671
-0.17500741
-1.5600244
1.549475
-0.16196229
-1.633867
1.6208373
-0.14611366
-1.7111962
1.6953628
-0.12725794
-1.7921474
1.7733063
-0.10454037
-1.8768516
1.8541472
-0.078845085
-1.9660392
1.9403577
-0.047407988
-2.0576088
2.0261792
-2.1570288
2.1222363
-0.0006350552
-0.050360633
-0.0015050883
-0.063535136
-0.0023970421
-0.06197431
-0.0033566991
-0.067702214
-0.0043265891
-0.069254526
-0.0053729887
-0.073520233
-0.0064352944
-0.076378726
-0.0075772444
-0.080341172
-0.0087450404
-0.083917039
-0.0099874769
-0.087974756
-0.011272436
-0.09205979
-0.012625265
-0.09640932
-0.014035185
-0.10092793
-0.015511817
-0.10566654
-0.017055025
-0.11061947
-0.018669123
-0.11580068
-0.020356237
-0.12121979
-0.022120174
-0.12688676
-0.023964155
-0.13281312
-0.025891781
-0.13900981
-0.027906727
-0.14548914
-0.030012263
-0.15226348
-0.032212511
-0.15934558
-0.034511178
-0.16674955
-0.036913081
-0.17448881
-0.039421051
-0.18257943
-0.042039808
-0.19103577
-0.044773117
-0.19987538
-0.047625293
-0.2091146
-0.050599954
-0.21877218
-0.053701226
-0.22886653
-0.056932499
-0.23941818
-0.06029714
-0.2504486
-0.063798206
-0.2619792
-0.067438198
-0.2740346
-0.071219516
-0.28663913
-0.075143412
-0.29981966
-0.079211468
-0.31360354
-0.083423107
-0.32802091
-0.087777997
-0.34310299
-0.092274599
-0.35888274
-0.096909869
-0.37539547
-0.10167949
-0.39267854
-0.10657841
-0.4107706
-0.11159957
-0.42971407
-0.11673442
-0.44955216
-0.12197271
-0.47033155
-0.12730179
-0.4921011
-0.13270734
-0.51491265
-0.13817276
-0.53882036
-0.14367862
-0.56388151
-0.14920283
-0.59015689
-0.15472012
-0.61771003
-0.16020212
-0.64660762
-0.1656167
-0.67691995
-0.17092749
-0.70872175
-0.17609397
-0.74209015
-0.18107052
-0.77710676
-0.18580576
-0.81385779
-0.19024279
-0.85243235
-0.19431754
-0.89292482
-0.19795867
-0.93543336
-0.20108614
-0.9800621
-0.20361188
-1.0269184
-0.20543641
-1.0761156
-0.20645049
-1.1277699
-0.20652855
-1.1820061
-0.20553523
-1.2389443
-0.20331948
-1.2987194
-0.19971201
-1.3614696
-0.19452792
-1.4273328
-0.18756017
-1.4964543
-0.17858276
-1.5689856
-0.16734278
-1.6450906
-0.1535751
-1.7249476
-0.13697953
-1.8087274
-0.11712026
-1.8966964
-0.094065557
-1.9890798
-0.066325784
-2.0853415
-2.1881824
-0.00057166958
-0.049788949
-0.0013836237
-0.062723107
-0.0021901645
-0.061167577
-0.0030967591
-0.066795586
-0.0039871778
-0.068364099
-0.0049655286
-0.072541829
-0.0059431541
-0.075401043
-0.007006097
-0.079278155
-0.0080867812
-0.082836271
-0.009241286
-0.086820154
-0.010434717
-0.090866249
-0.011692546
-0.095151367
-0.013004879
-0.099615463
-0.014380485
-0.10429078
-0.015819795
-0.10917999
-0.017326511
-0.11429378
-0.018903951
-0.11964215
-0.020555081
-0.1252354
-0.022284171
-0.13108379
-0.024094049
-0.13719967
-0.025989196
-0.1435937
-0.027973139
-0.15027923
-0.030049754
-0.15726862
-0.032223832
-0.1645751
-0.03449865
-0.17221358
-0.036879438
-0.1801982
-0.039369669
-0.18854506
-0.041974446
-0.19727007
-0.044697366
-0.2063911
-0.047543632
-0.21592529
-0.050516414
-0.22589306
-0.05362011
-0.23631373
-0.056858603
-0.24720929
-0.060234662
-0.25860225
-0.063751961
-0.27051633
-0.067412757
-0.28297728
-0.071219374
-0.29601189
-0.075172414
-0.30964924
-0.079272969
-0.32391898
-0.083520597
-0.33885386
-0.087913573
-0.35448812
-0.092449832
-0.37085742
-0.097126038
-0.38800039
-0.10193676
-0.40595776
-0.10687602
-0.4247725
-0.11193585
-0.44448982
-0.11710702
-0.46515765
-0.12237762
-0.48682753
-0.1277351
-0.50955195
-0.13316381
-0.53338815
-0.13864557
-0.55839595
-0.14416099
-0.58463735
-0.14968678
-0.61217978
-0.15519705
-0.64109252
-0.16066263
-0.67144913
-0.16605065
-0.70332807
-0.17132453
-0.73681014
-0.17644214
-0.77198253
-0.18135802
-0.80893477
-0.1860197
-0.84776295
-0.19036978
-0.88856643
-0.19434325
-0.93145092
-0.19786859
-0.97652709
-0.20086504
-1.0239116
-0.20324282
-1.0737267
-0.20490092
-1.1260997
-0.20573123
-1.1811629
-0.20560767
-1.2390541
-0.20439045
-1.299922
-0.20193096
-1.3639136
-0.19805528
-1.4311923
-0.1925812
-1.5019117
-0.18529753
-1.5762522
-0.17597999
-1.6543909
-0.1643809
-1.7365295
-0.15021107
-1.8228806
-0.13317575
-1.9137158
-0.11304909
-2.0091921
-0.088989692
-2.1093924
-2.2155912
-0.0005168759
-0.049272072
-0.0012681622
-0.06197176
-0.0019999191
-0.060435696
-0.0028489816
-0.065946466
-0.0036746987
-0.067538315
-0.0045861573
-0.071630297
-0.0054875573
-0.074499561
-0.0064770378
-0.078288584
-0.0074781371
-0.081835071
-0.0085519232
-0.085746259
-0.0096614863
-0.089756566
-0.010832489
-0.093980235
-0.012056128
-0.098391682
-0.013340167
-0.10300659
-0.014686069
-0.10783392
-0.01609769
-0.11288198
-0.017578284
-0.11816135
-0.01913123
-0.12368224
-0.020759981
-0.12945481
-0.022468874
-0.13549052
-0.024261071
-0.14180123
-0.026141637
-0.14839836
-0.028114487
-0.15529544
-0.03018363
-0.1625056
-0.032354251
-0.17004256
-0.034630344
-0.17792167
-0.037016999
-0.18615793
-0.03951862
-0.19476793
-0.042140731
-0.20376842
-0.044886769
-0.21317863
-0.047761953
-0.22301721
-0.050770739
-0.23330421
-0.053916916
-0.24406231
-0.057204464
-0.25531383
-0.060636886
-0.26708294
-0.064216729
-0.27939638
-0.067946293
-0.29228118
-0.07182757
-0.30576671
-0.075860975
-0.31988421
-0.080046607
-0.33466673
-0.084383904
-0.35014919
-0.08887022
-0.36636932
-0.093502767
-0.3833659
-0.098277186
-0.40118122
-0.10318754
-0.41985984
-0.10822734
-0.43944752
-0.11338686
-0.45999539
-0.11865717
-0.48155425
-0.12402546
-0.50418042
-0.12947809
-0.527932
-0.13499941
-0.5528708
-0.14057081
-0.5790618
-0.14617206
-0.60657402
-0.15178032
-0.63547938
-0.15736853
-0.66585563
-0.16290836
-0.69778251
-0.16836635
-0.73134594
-0.17370567
-0.76663651
-0.17888514
-0.80374805
-0.18385835
-0.84278191
-0.18857362
-0.8838427
-0.19297312
-0.92704229
-0.19699272
-0.97249763
-0.20056022
-1.0203334
-0.20359532
-1.0706801
-0.20601028
-1.1236724
-0.20769992
-1.1794599
-0.20855838
-1.2381814
-0.20845713
-1.300008
-0.20726346
-1.3650912
-0.20482383
-1.4336151
-0.20096177
-1.5057562
-0.19550015
-1.5816958
-0.18822773
-1.6616451
-0.178924
-1.745815
-0.16733143
-1.8344554
-0.15318979
-1.9278403
-0.13621822
-2.0261486
-0.11586824
-2.1297324
-2.239111
-0.00046301625
-0.048809032
-0.0011677503
-0.061266956
-0.0018231276
-0.059780317
-0.0026122379
-0.065157275
-0.0033615519
-0.0667889
-0.0042159218
-0.070775843
-0.005050574
-0.073664823
-0.0059742545
-0.07736481
-0.0069043986
-0.080904827
-0.0079051552
-0.084745396
-0.0089404633
-0.088721141
-0.010034839
-0.092885734
-0.01118157
-0.097244814
-0.012387203
-0.10180081
-0.013653905
-0.10656706
-0.014984795
-0.11155092
-0.016383582
-0.11676237
-0.017854022
-0.12221159
-0.019399797
-0.1279088
-0.021024941
-0.13386513
-0.022734177
-0.14009172
-0.02453088
-0.14660136
-0.026420598
-0.1534054
-0.028407967
-0.16051787
-0.030497565
-0.16795257
-0.032694742
-0.17572407
-0.035004788
-0.18384742
-0.037432736
-0.19233948
-0.039983616
-0.20121699
-0.042662746
-0.21049889
-0.045475126
-0.22020416
-0.048425358
-0.23035325
-0.051517934
-0.24096893
-0.054757342
-0.25207354
-0.058146873
-0.26369245
-0.061689735
-0.27585247
-0.065388544
-0.28858122
-0.069245303
-0.30190869
-0.073260848
-0.31586729
-0.077435634
-0.33049044
-0.081768662
-0.34581452
-0.086258783
-0.36187741
-0.090902718
-0.37872001
-0.095696771
-0.39638504
-0.10063645
-0.41491783
-0.10571473
-0.4343667
-0.11092434
-0.45478302
-0.1162561
-0.47621949
-0.12169922
-0.49873403
-0.12724209
-0.52238557
-0.13287017
-0.54723886
-0.13856797
-0.57335981
-0.14431738
-0.60082006
-0.15009802
-0.6296938
-0.15588748
-0.6600608
-0.16165993
-0.69200425
-0.1673861
-0.72561348
-0.17303456
-0.76098124
-0.17856857
-0.79820665
-0.1839481
-0.83739442
-0.18912728
-0.87865489
-0.19405558
-0.92210467
-0.19867605
-0.96786708
-0.2029256
-1.016073
-0.20673348
-1.0668604
-0.21001928
-1.1203739
-0.21269792
-1.1767675
-0.21466377
-1.2362008
-0.21581624
-1.2988398
-0.2160218
-1.3648689
-0.21515205
-1.4344672
-0.2130529
-1.507837
-0.20955748
-1.5851722
-0.20448309
-1.6667002
-0.19762657
-1.7526522
-0.18875974
-1.8433033
-0.1776564
-1.9389252
-0.16403112
-2.039758
-0.14749277
-2.1462591
-2.2585485
-0.00041328034
-0.048395734
-0.0010769249
-0.060603247
-0.0016703031
-0.059186882
-0.0024040797
-0.064423435
-0.0030763146
-0.066116623
-0.0038795376
-0.069972548
-0.0046466333
-0.072897652
-0.0055101139
-0.076501245
-0.0063761404
-0.080038708
-0.0073157365
-0.0838057
-0.0082912362
-0.087745531
-0.0093234628
-0.091853389
-0.010408037
-0.096160109
-0.011549932
-0.10065878
-0.01275183
-0.10536501
-0.014017623
-0.11028495
-0.015350806
-0.115429
-0.016755267
-0.12080693
-0.01823552
-0.12642833
-0.019795583
-0.13230482
-0.021440581
-0.13844645
-0.023175369
-0.14486628
-0.025005136
-0.15157531
-0.026935046
-0.15858761
-0.028970782
-0.16591645
-0.031118237
-0.1735762
-0.033382237
-0.18158295
-0.035769191
-0.18995201
-0.038284512
-0.19870111
-0.040933699
-0.20784909
-0.043722469
-0.21741472
-0.046655525
-0.22741945
-0.049738389
-0.23788526
-0.052974479
-0.24883657
-0.056368415
-0.26029755
-0.059923635
-0.27229619
-0.063642426
-0.28486126
-0.06752685
-0.298023
-0.071578512
-0.31181423
-0.07579752
-0.32626991
-0.080183788
-0.34142659
-0.084735321
-0.35732406
-0.089450379
-0.37400297
-0.094325689
-0.39150756
-0.099356152
-0.40988501
-0.10453664
-0.42918364
-0.10986136
-0.4494555
-0.11532139
-0.4707564
-0.12090876
-0.49314335
-0.12661202
-0.51667871
-0.13242051
-0.54142644
-0.13832023
-0.56745583
-0.14429611
-0.59483955
-0.15033106
-0.62365382
-0.15640573
-0.65398068
-0.16249835
-0.68590571
-0.16858521
-0.71952022
-0.17463821
-0.75492128
-0.18062688
-0.79221047
-0.18651615
-0.831497
-0.19226782
-0.8728944
-0.19783796
-0.91652498
-0.20317788
-0.96251683
-0.20823267
-1.011007
-0.21294092
-1.06214
-0.21723364
-1.116068
-0.22103375
-1.1729532
-0.22425727
-1.232962
-0.22680226
-1.2962784
-0.22856769
-1.3630861
-0.22942886
-1.4335876
-0.22925408
-1.5079925
-0.22789608
-1.5865103
-0.22519082
-1.6693851
-0.22095856
-1.7568641
-0.21500252
-1.8492391
-0.2071086
-1.9467994
-0.19702743
-2.0498224
-0.18445617
-2.158817
-2.2736765
-0.00037068262
-0.048025033
-0.0010035021
-0.059970367
-0.00154223
-0.058648109
-0.0022300882
-0.063735513
-0.0028451986
-0.065501447
-0.0035975939
-0.069220081
-0.004311748
-0.072183421
-0.0051141826
-0.075698727
-0.005940047
-0.079212752
-0.0068327885
-0.08291286
-0.0077613036
-0.086816907
-0.0087427541
-0.090871822
-0.0097761592
-0.095126574
-0.010865846
-0.099568949
-0.012015802
-0.1042149
-0.013229548
-0.10907104
-0.01451195
-0.11414642
-0.01586712
-0.11945156
-0.017299877
-0.12499535
-0.018815644
-0.13078881
-0.020419062
-0.13684277
-0.022116385
-0.14316866
-0.023912886
-0.14977849
-0.025814335
-0.15668581
-0.027827175
-0.16390322
-0.029957152
-0.17144579
-0.032211272
-0.17932837
-0.034595226
-0.18756755
-0.037114882
-0.19618089
-0.039776993
-0.20518636
-0.042586709
-0.21460432
-0.045549758
-0.22445566
-0.048670951
-0.23476325
-0.051955528
-0.24555109
-0.055406649
-0.25684544
-0.059028068
-0.26867369
-0.062822963
-0.28106518
-0.066793057
-0.29405161
-0.070939483
-0.30766639
-0.075262878
-0.32194497
-0.07976316
-0.33692461
-0.084439019
-0.35264635
-0.089288821
-0.36915115
-0.094309322
-0.38648486
-0.099497511
-0.40469442
-0.10484875
-0.42382979
-0.11035749
-0.44394391
-0.11601815
-0.46509264
-0.12182267
-0.48733545
-0.12776358
-0.51073412
-0.13383079
-0.53535524
-0.14001392
-0.56126836
-0.14630125
-0.58854751
-0.15267863
-0.61727132
-0.15913093
-0.64752283
-0.1656403
-0.67939031
-0.17218746
-0.71296651
-0.17874998
-0.74835167
-0.18530248
-0.78565027
-0.19181696
-0.8249742
-0.19826073
-0.86644159
-0.20459801
-0.91017792
-0.21078768
-0.95631655
-0.21678403
-1.0049991
-0.22253551
-1.0563761
-0.22798338
-1.1106066
-0.23306237
-1.1678596
-0.23769995
-1.2283086
-0.24181091
-1.2921505
-0.24530295
-1.3595759
-0.24807647
-1.4307949
-0.25001268
-1.5060361
-0.2509814
-1.5855206
-0.25084665
-1.6694984
-0.24944546
-1.7582437
-0.24660664
-1.8520563
-0.24214839
-1.9512364
-0.23583876
-2.0561141
-0.22744068
-2.1671999
-2.2842558
-0.00032707343
-0.047697942
-0.00093389664
-0.059363486
-0.001423818
-0.058158145
-0.0020666104
-0.06309266
-0.0026399608
-0.064928037
-0.0033667381
-0.068493234
-0.0040485056
-0.07150158
-0.0048356641
-0.074911487
-0.0056183037
-0.078430024
-0.0064633168
-0.082067751
-0.0073481696
-0.085931947
-0.0082854718
-0.089934404
-0.0092771658
-0.094134752
-0.010326836
-0.098519141
-0.011438852
-0.10310273
-0.01261779
-0.10789194
-0.013867601
-0.11289642
-0.015194276
-0.11812468
-0.016602662
-0.12358674
-0.01809847
-0.12929276
-0.019687589
-0.13525338
-0.021376089
-0.14147987
-0.023170363
-0.14798389
-0.025077758
-0.15477806
-0.027103865
-0.16187672
-0.029256307
-0.16929292
-0.031541369
-0.17704283
-0.033966035
-0.18514236
-0.036536968
-0.19360937
-0.039260377
-0.20246232
-0.042142135
-0.21172186
-0.045188108
-0.22140892
-0.048403533
-0.23154698
-0.051792549
-0.24216115
-0.055359455
-0.25327752
-0.059107788
-0.26492424
-0.063039734
-0.27713202
-0.067157529
-0.28993248
-0.071462464
-0.30336
-0.075955043
-0.3174508
-0.080635024
-0.3322429
-0.085502309
-0.34777717
-0.090554716
-0.36409668
-0.095790585
-0.38124674
-0.10120733
-0.39927521
-0.10680155
-0.4182329
-0.11256957
-0.43817299
-0.11850702
-0.45915203
-0.12460866
-0.48123036
-0.13086865
-0.50447039
-0.13728058
-0.52893923
-0.14383633
-0.55470819
-0.15052748
-0.58185154
-0.15734392
-0.61044965
-0.16427457
-0.6405865
-0.17130662
-0.67235208
-0.17842486
-0.70584158
-0.18561257
-0.7411567
-0.19285056
-0.77840439
-0.2001167
-0.81769951
-0.20738587
-0.85916316
-0.21462947
-0.90292426
-0.22181474
-0.94912037
-0.22890521
-0.9978968
-0.23585848
-1.0494099
-0.24262776
-1.1038233
-0.24915889
-1.1613133
-0.25538985
-1.2220612
-0.26125363
-1.286269
-0.26667609
-1.3541345
-0.27156142
-1.4258894
-0.2758204
-1.501756
-0.27933746
-1.5819816
-0.28199521
-1.6668181
-0.2836593
-1.7565567
-0.28418604
-1.8515065
-0.28341517
-1.9519846
-0.28114355
-2.0583665
-0.27718128
-2.171145
-2.2900186
-0.00028487361
-0.047413049
-0.00087230575
-0.058775998
-0.0013227009
-0.057707707
-0.0019452899
-0.062470011
-0.0024967188
-0.06437655
-0.0032004655
-0.067789419
-0.0038471633
-0.07085481
-0.0046098525
-0.074148718
-0.0053612296
-0.077678558
-0.006173931
-0.081254954
-0.0070317206
-0.085074051
-0.0079423234
-0.089023686
-0.0089101925
-0.093166754
-0.0099388486
-0.097490345
-0.011033334
-0.10200808
-0.012198486
-0.10672661
-0.01343998
-0.11165474
-0.014763258
-0.1168012
-0.016174369
-0.1221754
-0.01768015
-0.12778673
-0.019286721
-0.13364653
-0.021001717
-0.13976457
-0.022831633
-0.14615364
-0.024784004
-0.15282532
-0.026866563
-0.15979376
-0.029086257
-0.16707278
-0.031450781
-0.17467781
-0.033967161
-0.18262544
-0.036641985
-0.19093395
-0.039482195
-0.19962145
-0.042493967
-0.20870937
-0.045682447
-0.21821964
-0.049052576
-0.22817598
-0.052609186
-0.23860359
-0.056355944
-0.24952972
-0.060295573
-0.26098347
-0.06443089
-0.27299545
-0.068763671
-0.28559833
-0.073294848
-0.29882733
-0.078025375
-0.31271864
-0.082955124
-0.32731137
-0.088083639
-0.34264671
-0.093410525
-0.35876767
-0.098935013
-0.37571994
-0.10465533
-0.39355238
-0.11056996
-0.41231552
-0.1166768
-0.43206317
-0.12297359
-0.45285199
-0.12945781
-0.4747426
-0.13612595
-0.49779842
-0.1429747
-0.52208631
-0.1499998
-0.54767855
-0.15719604
-0.57465038
-0.16455793
-0.6030824
-0.17207832
-0.63306029
-0.17974931
-0.66467478
-0.18756075
-0.69802327
-0.19550221
-0.73320779
-0.20356002
-0.77033849
-0.21171871
-0.80953203
-0.21996072
-0.85091161
-0.2282652
-0.89460944
-0.23660822
-0.9407661
-0.24496162
-0.98953119
-0.25329454
-1.0410637
-0.26157
-1.0955334
-0.26974738
-1.1531202
-0.27777657
-1.214015
-0.28560542
-1.2784218
-0.29316854
-1.3465517
-0.30040001
-1.418637
-0.30721886
-1.494915
-0.31353603
-1.5756413
-0.319248
-1.6610824
-0.32424656
-1.7515341
-0.32841469
-1.847314
-0.33161579
-1.9487594
-0.3336872
-2.0562743
-0.33446101
-2.1703519
-2.2906442
-0.00024645406
-0.047166576
-0.00082265662
-0.058199741
-0.0012428107
-0.05728751
-0.0018903604
-0.061822403
-0.0024228309
-0.063844021
-0.0031015445
-0.067110637
-0.0037239146
-0.070232366
-0.0044465496
-0.073426003
-0.0051861421
-0.076938876
-0.0059827149
-0.080458285
-0.0068301956
-0.084226462
-0.0077322113
-0.088121554
-0.0086956138
-0.092203221
-0.0097243821
-0.096461434
-0.010824258
-0.10090805
-0.01200102
-0.10554968
-0.013260935
-0.11039463
-0.014610748
-0.11545118
-0.016057331
-0.12072858
-0.017607505
-0.1262363
-0.019270024
-0.13198373
-0.021051491
-0.13798279
-0.022960938
-0.14424384
-0.02500582
-0.15078005
-0.027194142
-0.15760501
-0.029534172
-0.16473228
-0.032033473
-0.172178
-0.034699163
-0.17995918
-0.03753877
-0.18809373
-0.040558367
-0.19660117
-0.043763607
-0.20550338
-0.047160165
-0.21482226
-0.050752443
-0.2245828
-0.054544573
-0.23481047
-0.058539724
-0.24553348
-0.062740564
-0.25678144
-0.067149148
-0.26858557
-0.071766984
-0.28097908
-0.076595607
-0.29399715
-0.081635484
-0.30767707
-0.086887321
-0.32205769
-0.092351692
-0.33718034
-0.098028891
-0.35308829
-0.10391876
-0.36982769
-0.110022
-0.38744656
-0.116339
-0.40599571
-0.12286961
-0.42552949
-0.12961422
-0.44610406
-0.13657296
-0.46778025
-0.143746
-0.49062144
-0.1511326
-0.51469544
-0.15873297
-0.54007353
-0.16654568
-0.56683262
-0.17456927
-0.59505332
-0.18280178
-0.62482181
-0.19124001
-0.65623007
-0.19988017
-0.68937606
-0.2087167
-0.72436361
-0.21774314
-0.76130372
-0.2269512
-0.80031494
-0.23632993
-0.84152306
-0.24586718
-0.88506152
-0.25554764
-0.93107404
-0.2653536
-0.97971262
-0.27526336
-1.0311402
-0.2852519
-1.0855299
-0.29528951
-1.1430663
-0.30534279
-1.2039441
-0.31536993
-1.2683756
-0.32532615
-1.336575
-0.33516124
-1.4087801
-0.34480731
-1.4852458
-0.35419956
-1.5662249
-0.3632579
-1.6519991
-0.37189773
-1.7428688
-0.38002096
-1.8391648
-0.38752764
-1.9412271
-0.39428116
-2.0494983
-0.40015361
-2.1644577
-2.2857783
-0.00021389121
-0.046952664
-0.00079177788
-0.057621801
-0.0011900379
-0.056889206
-0.0018483641
-0.061164019
-0.0023525155
-0.06333981
-0.0030249357
-0.066438149
-0.0036458782
-0.069611349
-0.0043631661
-0.072708633
-0.005104475
-0.076197476
-0.0059007185
-0.079661943
-0.0067553448
-0.083371724
-0.0076690298
-0.087207749
-0.0086500718
-0.091222043
-0.0097033151
-0.095408044
-0.010835449
-0.099775751
-0.012053246
-0.1043317
-0.013363964
-0.10908371
-0.014775052
-0.11403987
-0.01629508
-0.11920831
-0.017932135
-0.12459898
-0.019694662
-0.1302209
-0.021591765
-0.13608536
-0.023631779
-0.14220346
-0.025823611
-0.14858782
-0.028176168
-0.15525201
-0.030697033
-0.16221093
-0.033394205
-0.16948029
-0.036275111
-0.17707768
-0.039346601
-0.18502158
-0.042613955
-0.1933331
-0.046083594
-0.20203295
-0.049759301
-0.21114569
-0.053645724
-0.22069543
-0.057745456
-0.2307097
-0.062061093
-0.24121671
-0.066595313
-0.25224599
-0.071349766
-0.26382977
-0.076325709
-0.27600167
-0.081524613
-0.28879665
-0.086948035
-0.3022519
-0.092597265
-0.31640656
-0.098473898
-0.33130163
-0.10457944
-0.3469805
-0.11091633
-0.36348835
-0.11748681
-0.38087341
-0.12429317
-0.39918646
-0.13133897
-0.41848054
-0.13862667
-0.43881294
-0.14616023
-0.46024298
-0.15394296
-0.48283467
-0.16197868
-0.50665532
-0.1702703
-0.53177714
-0.17882167
-0.55827607
-0.18763611
-0.58623323
-0.19671621
-0.61573558
-0.20606442
-0.64687519
-0.21568285
-0.67975038
-0.22557225
-0.71446634
-0.23573266
-0.75113475
-0.24616271
-0.78987558
-0.2568607
-0.83081495
-0.26782173
-0.87408949
-0.27904006
-0.91984374
-0.29050766
-0.96823198
-0.30221395
-1.0194197
-0.31414559
-1.0735828
-0.32628615
-1.1309089
-0.33861326
-1.1915987
-0.35110497
-1.2558641
-0.36373023
-1.3239285
-0.37644983
-1.3960378
-0.38923038
-1.4724412
-0.40201495
-1.5534151
-0.41474715
-1.6392407
-0.42736328
-1.730226
-0.4398047
-1.8266961
-0.45198643
-1.9290181
-0.46381548
-2.0376448
-0.4751897
-2.1530591
-2.2750073
-0.00019300449
-0.046759636
-0.0007903298
-0.057024422
-0.0011849021
-0.056494588
-0.0018370339
-0.060511827
-0.002334707
-0.062842075
-0.0030104658
-0.06576232
-0.0036454684
-0.068976269
-0.0043668292
-0.071987188
-0.0051294509
-0.075434759
-0.0059461228
-0.078845168
-0.0068292458
-0.082488485
-0.0077784321
-0.086258437
-0.0088032039
-0.090197131
-0.0099096991
-0.094301395
-0.011105721
-0.098579557
-0.012399282
-0.10303795
-0.013798973
-0.10768381
-0.015313802
-0.11252481
-0.016952588
-0.11756927
-0.018725485
-0.12282579
-0.020641511
-0.12830456
-0.022710552
-0.13401597
-0.02494165
-0.13997198
-0.027344119
-0.14618493
-0.02992667
-0.15266899
-0.03269753
-0.15943955
-0.035663822
-0.16651343
-0.038832734
-0.17390815
-0.042209703
-0.18164393
-0.04580063
-0.18974142
-0.049609154
-0.1982236
-0.053639186
-0.20711476
-0.057893752
-0.21643987
-0.062375112
-0.22622726
-0.0670854
-0.23650525
-0.072026513
-0.24730359
-0.077199819
-0.25865506
-0.082607483
-0.27059247
-0.088251181
-0.28315129
-0.094133417
-0.29636786
-0.1002569
-0.31028111
-0.10662485
-0.32493154
-0.11324132
-0.34036171
-0.12011048
-0.35661667
-0.12723712
-0.37374403
-0.13462717
-0.39179344
-0.1422864
-0.41081807
-0.15022147
-0.43087436
-0.15843911
-0.45202153
-0.16694681
-0.47432283
-0.17575211
-0.4978455
-0.18486352
-0.52266083
-0.19428876
-0.54884551
-0.2040362
-0.57648
-0.21411364
-0.60565183
-0.22452995
-0.63645203
-0.23529236
-0.66898051
-0.24640863
-0.70334196
-0.25788598
-0.73964857
-0.26973114
-0.77802083
-0.28194947
-0.81858618
-0.29454593
-0.86148168
-0.30752406
-0.90685324
-0.32088604
-0.95485653
-0.33463275
-1.0056583
-0.34876282
-1.0594367
-0.36327237
-1.1163819
-0.37815459
-1.1766975
-0.39340336
-1.2405949
-0.40899974
-1.3083101
-0.42493213
-1.3800818
-0.44117328
-1.456175
-0.45769811
-1.5368638
-0.47447422
-1.6224372
-0.49145841
-1.7132136
-0.50861177
-1.8095139
-0.52588665
-1.9117145
-0.54323586
-2.0202694
-0.56057588
-2.1356921
-2.2578666
-0.00017352763
-0.046586083
-0.00079871334
-0.056399182
-0.0011974451
-0.056095809
-0.0018617419
-0.059847469
-0.0023758577
-0.062327895
-0.0030658716
-0.065072234
-0.0037287456
-0.068313314
-0.0044729407
-0.071242906
-0.0052742174
-0.074633383
-0.0061331942
-0.077986085
-0.007068557
-0.081553002
-0.0080805196
-0.085246343
-0.0091794516
-0.08909805
-0.010373191
-0.093107494
-0.011670932
-0.097281634
-0.013082187
-0.1016265
-0.014616904
-0.10614887
-0.01628542
-0.11085604
-0.018098249
-0.11575616
-0.020065589
-0.12085815
-0.022198128
-0.12617169
-0.024505747
-0.13170798
-0.026997914
-0.1374794
-0.02968405
-0.14349834
-0.032572115
-0.14978043
-0.035669504
-0.15634162
-0.038983436
-0.16319889
-0.042518687
-0.17037223
-0.0462803
-0.17788159
-0.05027193
-0.18574899
-0.054496666
-0.193998
-0.058957182
-0.20265329
-0.063654459
-0.21174156
-0.068591362
-0.22128923
-0.073768979
-0.2313264
-0.07918896
-0.24188227
-0.084853943
-0.25298862
-0.090766009
-0.26467882
-0.096929195
-0.27698638
-0.10334718
-0.289948
-0.11002456
-0.3036017
-0.11696685
-0.31798705
-0.12418078
-0.33314539
-0.13167328
-0.34912156
-0.13945248
-0.36596201
-0.14752737
-0.38371548
-0.15590737
-0.40243475
-0.16460268
-0.42217543
-0.17362457
-0.44299572
-0.18298429
-0.46495884
-0.19269431
-0.48813085
-0.20276655
-0.51258355
-0.21321499
-0.53839159
-0.22405254
-0.56563649
-0.23529362
-0.59440427
-0.24695173
-0.62478686
-0.25904187
-0.6568827
-0.27157822
-0.69079725
-0.28457519
-0.72664251
-0.29804796
-0.76453816
-0.31201017
-0.8046132
-0.32647608
-0.84700403
-0.34145949
-0.89185705
-0.35697338
-0.93932871
-0.37302966
-0.98958686
-0.38964005
-1.0428098
-0.4068149
-1.099189
-0.42456366
-1.1589291
-0.44289017
-1.2222471
-0.46180041
-1.2893769
-0.48129545
-1.3605623
-0.50137556
-1.4360688
-0.52203366
-1.5161782
-0.54325465
-1.6011876
-0.56503218
-1.6914066
-0.58734385
-1.7871719
-0.61018187
-1.8888463
-0.63352659
-1.9968964
-0.65733847
-2.1118502
-2.2338136
-0.00015967165
-0.046426384
-0.00082723736
-0.055731561
-0.0012360248
-0.055686972
-0.0019285517
-0.059154879
-0.0024738567
-0.061782523
-0.0031915841
-0.06435443
-0.0039044742
-0.06760034
-0.0046918993
-0.070455389
-0.0055551151
-0.073770063
-0.0064837688
-0.077057318
-0.0075009075
-0.080535735
-0.0086088788
-0.084138232
-0.0098192113
-0.08788756
-0.011141877
-0.091784655
-0.01258766
-0.095835656
-0.014167881
-0.10004606
-0.015893943
-0.10442257
-0.017777386
-0.10897234
-0.019829663
-0.11370359
-0.022061925
-0.11862557
-0.024484618
-0.12374864
-0.027107975
-0.12908422
-0.029941417
-0.13464553
-0.032992609
-0.14044667
-0.036269094
-0.14650341
-0.039776736
-0.15283339
-0.043520184
-0.15945481
-0.047503456
-0.16638826
-0.051729301
-0.17365498
-0.056199642
-0.18127782
-0.060915807
-0.18928092
-0.065879472
-0.19768863
-0.071091718
-0.20652823
-0.076553983
-0.21582578
-0.082268493
-0.22561061
-0.088237723
-0.23591165
-0.094465008
-0.24675982
-0.10095536
-0.25818684
-0.10771312
-0.27022683
-0.11474538
-0.28291382
-0.12205906
-0.29628593
-0.12966358
-0.31038026
-0.13756744
-0.32523906
-0.14578156
-0.34090477
-0.15431803
-0.35742265
-0.1631886
-0.37484177
-0.17240705
-0.39321288
-0.18198796
-0.41259081
-0.19194612
-0.43303353
-0.20229798
-0.45460259
-0.21305992
-0.47736415
-0.22425032
-0.50138797
-0.23588675
-0.52674952
-0.24798847
-0.55352863
-0.26057572
-0.58181035
-0.27366877
-0.61168654
-0.28728852
-0.64325503
-0.30145753
-0.67661963
-0.31619796
-0.7118927
-0.33153227
-0.74919362
-0.34748414
-0.78865019
-0.36407764
-0.8303984
-0.38133672
-0.87458475
-0.39928518
-0.92136582
-0.41794854
-0.97090777
-0.43735107
-1.0233901
-0.45751711
-1.0790043
-0.47847074
-1.1379552
-0.50023408
-1.2004618
-0.52283239
-1.2667549
-0.54628554
-1.3370837
-0.57061188
-1.4117153
-0.59582966
-1.4909319
-0.62195577
-1.5750316
-0.64899736
-1.6643339
-0.67696719
-1.7591702
-0.70587672
-1.8599052
-0.73575619
-1.9669866
-0.7665955
-2.0809779
-2.2022269
-0.00015200222
-0.046274352
-0.00088121391
-0.055002294
-0.0013025289
-0.055265605
-0.0020399202
-0.058417423
-0.0026340342
-0.061188339
-0.0033978964
-0.063590489
-0.004183529
-0.066814618
-0.0050392736
-0.069599547
-0.0059901666
-0.07281906
-0.0070200325
-0.076027333
-0.0081543486
-0.079401282
-0.0093990163
-0.082893415
-0.010767125
-0.086519283
-0.012270753
-0.090280842
-0.013922573
-0.094183628
-0.015735284
-0.098233124
-0.0177216
-0.102436
-0.019893844
-0.10679981
-0.022263969
-0.11133315
-0.024843118
-0.11604607
-0.027641645
-0.12094972
-0.030668412
-0.12605703
-0.033931067
-0.1313824
-0.03743628
-0.13694094
-0.041188485
-0.14275065
-0.045191639
-0.14882962
-0.049447473
-0.15519829
-0.053957648
-0.16187735
-0.058723072
-0.16888875
-0.063743977
-0.17625604
-0.069021199
-0.18400275
-0.074555238
-0.19215356
-0.080347973
-0.20073437
-0.086401396
-0.20977114
-0.092719222
-0.21929145
-0.099305314
-0.22932411
-0.10616589
-0.23989769
-0.11330715
-0.25104388
-0.12073816