/*--------------------------------*- C++ -*----------------------------------*\
| =========                 |                                                 |
| \\      /  F ield         | OpenFOAM: The Open Source CFD Toolbox           |
|  \\    /   O peration     | Version:  2512                                  |
|   \\  /    A nd           | Website:  www.openfoam.com                      |
|    \\/     M anipulation  |                                                 |
\*---------------------------------------------------------------------------*/
FoamFile
{
    version     2.0;
    format      ascii;
    arch        "LSB;label=32;scalar=64";
    class       volScalarField;
    location    "0.15";
    object      rho;
}
// * * * * * * * * * * * * * * * * * * * * * * * * * * * * * * * * * * * * * //

dimensions      [1 -3 0 0 0 0 0];

internalField   nonuniform List<scalar> 
16000
(
1.0641333
1.0947239
1.0782172
1.0884664
1.082509
1.0868657
1.084969
1.0871188
1.0868683
1.0881576
1.0886425
1.0896465
1.0904507
1.0914171
1.0923752
1.0933974
1.0944554
1.0955586
1.0967042
1.0978926
1.0991234
1.1003963
1.1017109
1.1030664
1.1044619
1.1058963
1.1073684
1.1088765
1.1104188
1.1119931
1.113597
1.1152279
1.1168827
1.1185583
1.1202509
1.121957
1.1236725
1.1253932
1.1271149
1.1288331
1.1305434
1.1322413
1.1339223
1.1355821
1.1372166
1.1388217
1.1403936
1.141929
1.1434245
1.1448774
1.1462852
1.1476455
1.1489567
1.1502172
1.1514258
1.1525817
1.1536843
1.1547333
1.1557285
1.1566701
1.1575583
1.1583933
1.1591758
1.1599063
1.1605853
1.1612138
1.1617924
1.1623219
1.162803
1.1632357
1.1636202
1.1639571
1.1642485
1.1644961
1.1646996
1.1648715
1.1650188
1.1649275
1.1655699
1.1643316
1.0608953
1.0920414
1.0749667
1.0857778
1.0794969
1.0842283
1.0821438
1.0845301
1.0842412
1.0856487
1.0861873
1.0872664
1.0881519
1.0891936
1.0902374
1.0913437
1.0924911
1.0936857
1.0949257
1.0962111
1.0975414
1.0989159
1.100334
1.1017945
1.1032962
1.1048377
1.1064172
1.1080326
1.1096817
1.1113617
1.1130697
1.1148024
1.1165563
1.1183275
1.120112
1.1219053
1.1237031
1.1255006
1.127293
1.1290756
1.1308437
1.1325924
1.1343173
1.136014
1.1376784
1.1393066
1.1408952
1.1424409
1.1439411
1.1453934
1.1467956
1.1481463
1.1494441
1.1506882
1.1518779
1.153013
1.1540934
1.1551192
1.1560909
1.1570089
1.1578737
1.1586861
1.1594467
1.1601564
1.1608158
1.1614259
1.1619875
1.1625014
1.1629681
1.1633878
1.1637605
1.1640865
1.1643674
1.1646043
1.1648002
1.1649654
1.1650688
1.1650951
1.165539
1.1644303
1.0580873
1.0895841
1.0722207
1.0832727
1.0769013
1.0817842
1.0797228
1.0821893
1.0819738
1.0834462
1.0840731
1.0852241
1.0862011
1.0873264
1.0884637
1.0896635
1.0909085
1.0922031
1.0935457
1.0949359
1.096373
1.0978559
1.0993837
1.1009548
1.1025678
1.1042206
1.105911
1.1076365
1.1093942
1.1111809
1.1129929
1.1148263
1.116677
1.1185405
1.1204119
1.1222865
1.124159
1.1260244
1.1278775
1.1297132
1.1315265
1.1333126
1.1350669
1.1367852
1.1384636
1.1400986
1.1416871
1.1432263
1.1447143
1.146149
1.1475293
1.1488542
1.150123
1.1513355
1.1524918
1.1535922
1.1546371
1.1556273
1.1565636
1.1574468
1.158278
1.1590579
1.1597876
1.1604681
1.1611001
1.1616846
1.1622225
1.1627146
1.1631614
1.1635631
1.1639195
1.1642309
1.1644981
1.1647227
1.1649095
1.1650606
1.165142
1.1652313
1.165474
1.1646005
1.0555942
1.0873984
1.0696655
1.0810629
1.0745454
1.0796846
1.0776062
1.0802068
1.0800519
1.0816148
1.0823393
1.0835762
1.0846592
1.0858814
1.0871256
1.0884316
1.0897866
1.0911931
1.0926497
1.0941557
1.0957102
1.0973119
1.0989594
1.1006508
1.1023841
1.1041568
1.1059661
1.1078087
1.109681
1.1115791
1.1134986
1.1154348
1.1173826
1.1193369
1.1212921
1.1232427
1.1251831
1.1271076
1.1290107
1.130887
1.1327315
1.1345394
1.1363062
1.1380281
1.1397015
1.1413235
1.1428916
1.1444039
1.1458589
1.1472556
1.1485935
1.1498725
1.1510927
1.1522546
1.1533592
1.1544072
1.1553998
1.1563383
1.1572238
1.1580579
1.1588416
1.1595762
1.1602628
1.1609026
1.1614965
1.1620455
1.1625504
1.1630121
1.1634309
1.1638072
1.1641405
1.1644307
1.1646782
1.1648851
1.1650557
1.1651861
1.1652581
1.1653533
1.1654913
1.1647521
1.0534843
1.0856118
1.0675589
1.0792653
1.0725288
1.07796
1.0758967
1.0786198
1.0785555
1.0802096
1.0810524
1.0823823
1.0835828
1.0849111
1.0862708
1.0876917
1.0891651
1.0906921
1.0922715
1.0939025
1.0955836
1.0973132
1.0990895
1.1009098
1.1027716
1.1046716
1.106606
1.1085708
1.1105615
1.1125731
1.1146004
1.1166376
1.1186789
1.1207183
1.1227494
1.1247661
1.1267623
1.1287319
1.1306691
1.1325686
1.1344253
1.1362348
1.1379931
1.1396968
1.141343
1.1429296
1.144455
1.1459181
1.1473184
1.1486559
1.1499311
1.1511446
1.1522975
1.1533913
1.1544273
1.1554072
1.1563327
1.1572056
1.1580276
1.1588003
1.1595253
1.1602041
1.1608379
1.161428
1.1619754
1.162481
1.1629457
1.1633702
1.163755
1.1641001
1.1644051
1.1646693
1.1648929
1.1650782
1.1652281
1.1653363
1.1653966
1.165482
1.1655318
1.1649251
1.0517722
1.0842065
1.0658756
1.077891
1.0711197
1.0766752
1.0746205
1.0774954
1.0775326
1.0792853
1.080256
1.0816816
1.0830057
1.0844473
1.0859304
1.0874765
1.0890793
1.090739
1.0924542
1.0942233
1.0960443
1.0979148
1.0998322
1.1017931
1.1037938
1.1058299
1.1078969
1.1099895
1.112102
1.1142284
1.1163622
1.1184968
1.1206254
1.122741
1.1248366
1.1269056
1.1289413
1.1309376
1.1328888
1.1347896
1.1366354
1.1384224
1.1401471
1.1418073
1.1434009
1.1449269
1.1463847
1.1477745
1.1490969
1.1503529
1.151544
1.1526719
1.1537386
1.1547463
1.1556972
1.1565935
1.1574376
1.1582315
1.1589774
1.1596773
1.1603329
1.1609459
1.1615177
1.1620496
1.1625425
1.1629974
1.163415
1.1637959
1.1641406
1.164449
1.1647205
1.164954
1.1651495
1.165309
1.1654335
1.1655175
1.1655631
1.165623
1.16561
1.1651097
1.0504547
1.0831955
1.0646118
1.076933
1.0701032
1.0758385
1.0738563
1.0768383
1.0770075
1.0788246
1.0799326
1.0814626
1.0829243
1.0844962
1.0861204
1.0878105
1.0895617
1.091373
1.0932422
1.0951671
1.0971447
1.0991718
1.1012444
1.1033583
1.1055085
1.1076894
1.109895
1.1121187
1.1143537
1.1165925
1.1188275
1.121051
1.1232552
1.1254324
1.1275752
1.1296763
1.1317291
1.1337277
1.1356665
1.1375411
1.1393476
1.141083
1.1427452
1.1443329
1.1458456
1.1472835
1.1486474
1.1499387
1.1511594
1.1523116
1.1533979
1.154421
1.1553837
1.156289
1.1571398
1.1579388
1.1586887
1.1593922
1.1600515
1.1606689
1.1612463
1.1617854
1.1622876
1.1627543
1.1631862
1.1635844
1.1639493
1.1642815
1.1645813
1.1648485
1.1650823
1.1652813
1.1654454
1.1655754
1.1656713
1.1657299
1.1657576
1.1657823
1.1657168
1.1653215
1.0494662
1.0825152
1.0636997
1.0763776
1.0694888
1.0754455
1.0734788
1.0766393
1.0768507
1.0787918
1.0800774
1.0817432
1.0833714
1.085102
1.0868926
1.0887514
1.0906744
1.0926596
1.0947042
1.0968047
1.0989573
1.1011574
1.1033999
1.105679
1.1079881
1.1103201
1.1126676
1.1150223
1.1173759
1.1197195
1.1220445
1.1243419
1.1266033
1.1288204
1.1309853
1.1330911
1.1351315
1.1371008
1.1389948
1.1408097
1.1425431
1.1441936
1.1457604
1.147244
1.1486454
1.1499664
1.1512093
1.152377
1.1534727
1.1544997
1.1554616
1.1563622
1.1572049
1.1579933
1.1587309
1.1594208
1.160066
1.1606695
1.1612336
1.1617607
1.1622527
1.1627114
1.1631381
1.163534
1.1638999
1.1642366
1.1645445
1.1648238
1.1650749
1.1652972
1.1654899
1.1656514
1.1657811
1.1658787
1.1659433
1.1659758
1.1659825
1.1659645
1.1658573
1.1655619
1.0488256
1.0821745
1.0631439
1.0762494
1.0691939
1.0752758
1.0734464
1.0767126
1.0772416
1.0793016
1.0807903
1.0826146
1.084432
1.0863463
1.0883278
1.09038
1.0924989
1.0946813
1.0969232
1.0992198
1.1015657
1.1039548
1.1063801
1.1088339
1.1113079
1.1137932
1.1162803
1.1187594
1.1212205
1.1236535
1.1260485
1.1283958
1.1306866
1.1329123
1.1350654
1.1371396
1.1391294
1.1410305
1.14284
1.1445562
1.1461782
1.1477066
1.1491428
1.1504889
1.1517479
1.1529232
1.154019
1.1550392
1.1559884
1.1568711
1.1576916
1.1584544
1.1591638
1.1598236
1.1604376
1.1610093
1.1615419
1.1620383
1.162501
1.1629322
1.1633339
1.1637076
1.1640547
1.1643762
1.1646727
1.1649447
1.1651925
1.1654162
1.1656158
1.1657908
1.1659399
1.1660618
1.1661552
1.1662181
1.1662499
1.1662561
1.1662381
1.1661717
1.1660341
1.1658372
1.0485763
1.0822183
1.0629901
1.0764587
1.069337
1.0758015
1.074118
1.0774997
1.0782116
1.0804149
1.0821371
1.08415
1.0861842
1.0883123
1.090513
1.0927866
1.0951281
1.0975327
1.0999948
1.1025078
1.1050642
1.1076557
1.1102732
1.1129067
1.1155456
1.1181789
1.120795
1.1233825
1.1259296
1.1284254
1.130859
1.1332206
1.1355013
1.1376932
1.1397899
1.1417864
1.143679
1.1454655
1.1471454
1.148719
1.1501882
1.1515557
1.1528251
1.1540008
1.1550876
1.1560907
1.1570154
1.1578673
1.1586519
1.1593744
1.1600399
1.1606534
1.1612195
1.1617422
1.1622256
1.1626731
1.163088
1.163473
1.1638305
1.1641627
1.1644713
1.1647578
1.1650231
1.1652682
1.1654934
1.1656991
1.1658853
1.1660518
1.1661985
1.1663247
1.166429
1.1665102
1.166566
1.166593
1.1665918
1.166572
1.1665256
1.166408
1.1662509
1.1661486
1.0487921
1.0827233
1.0633118
1.0770028
1.0700427
1.0766424
1.0753171
1.0787467
1.0798438
1.0822145
1.0842044
1.086442
1.0887246
1.0910995
1.093551
1.096076
1.0986682
1.1013207
1.1040253
1.106773
1.1095538
1.1123564
1.1151691
1.117979
1.1207731
1.1235379
1.1262601
1.1289263
1.131524
1.1340413
1.1364675
1.1387933
1.1410109
1.1431141
1.1450988
1.1469622
1.1487035
1.1503237
1.1518247
1.1532102
1.1544845
1.1556531
1.1567219
1.1576971
1.1585855
1.1593936
1.1601281
1.1607954
1.1614016
1.1619527
1.1624541
1.1629109
1.1633277
1.1637088
1.164058
1.1643787
1.1646739
1.164946
1.1651975
1.16543
1.1656451
1.1658439
1.1660273
1.1661959
1.1663498
1.166489
1.1666135
1.1667227
1.1668163
1.1668933
1.1669527
1.166993
1.1670108
1.1670017
1.1669685
1.1669233
1.1668454
1.1666773
1.1665123
1.1664981
1.0495314
1.0837504
1.064194
1.0782628
1.0715036
1.0782707
1.0771653
1.0808176
1.082227
1.0847985
1.0870908
1.0895938
1.0921611
1.0948202
1.0975574
1.1003667
1.103239
1.1061643
1.1091314
1.1121278
1.11514
1.1181535
1.1211531
1.1241231
1.1270477
1.1299113
1.1326987
1.1353959
1.1379898
1.1404692
1.1428246
1.1450487
1.1471363
1.1490843
1.150892
1.1525603
1.1540922
1.155492
1.1567652
1.1579187
1.1589595
1.1598955
1.1607347
1.1614851
1.1621547
1.1627513
1.1632821
1.1637543
1.1641742
1.1645479
1.1648809
1.1651782
1.1654443
1.1656832
1.1658984
1.1660929
1.1662694
1.1664302
1.1665771
1.1667116
1.166835
1.166948
1.1670512
1.1671448
1.1672289
1.1673031
1.1673671
1.1674202
1.1674617
1.1674906
1.1675059
1.1675059
1.1674864
1.1674422
1.1673792
1.1673093
1.1671975
1.1669827
1.1668225
1.1668887
1.0507811
1.0852839
1.065619
1.0800364
1.0735862
1.0805091
1.079822
1.0836216
1.08545
1.0882698
1.0909076
1.0937259
1.0966216
1.0996072
1.1026688
1.1057961
1.1089764
1.1121956
1.1154382
1.1186873
1.1219254
1.1251341
1.1282946
1.1313882
1.1343967
1.137303
1.1400915
1.1427483
1.145262
1.1476237
1.1498272
1.151869
1.1537483
1.1554667
1.1570279
1.1584375
1.1597026
1.1608314
1.1618329
1.1627167
1.1634924
1.1641698
1.1647585
1.1652676
1.165706
1.1660818
1.1664028
1.1666759
1.1669075
1.1671036
1.1672692
1.167409
1.167527
1.1676269
1.1677116
1.1677839
1.1678458
1.1678992
1.1679456
1.1679861
1.1680214
1.1680522
1.1680785
1.1681005
1.1681177
1.1681297
1.1681358
1.1681351
1.1681267
1.1681095
1.1680827
1.1680441
1.1679886
1.1679118
1.1678223
1.1677283
1.1675804
1.1673254
1.1671833
1.1673223
1.0526267
1.0874025
1.067694
1.0825586
1.0763669
1.0835523
1.083342
1.0873471
1.089642
1.0927695
1.0958015
1.0989907
1.102264
1.1056214
1.109046
1.1125219
1.1160313
1.1195546
1.1230711
1.126559
1.1299959
1.1333593
1.1366271
1.1397784
1.142794
1.145657
1.1483535
1.1508727
1.1532072
1.1553532
1.1573099
1.1590799
1.160668
1.1620816
1.1633296
1.1644224
1.165371
1.1661873
1.1668831
1.1674701
1.1679597
1.168363
1.1686902
1.168951
1.1691544
1.1693084
1.1694206
1.1694974
1.1695449
1.1695684
1.1695724
1.169561
1.1695376
1.1695052
1.1694663
1.1694229
1.1693767
1.1693291
1.169281
1.1692332
1.169186
1.1691397
1.1690941
1.1690489
1.1690035
1.1689572
1.1689092
1.1688582
1.1688031
1.1687428
1.1686766
1.1686019
1.1685128
1.168407
1.168295
1.1681775
1.167993
1.1677087
1.1675976
1.1677927
1.0551262
1.0901529
1.0705386
1.0858379
1.0800231
1.0874798
1.0878705
1.0921156
1.0949538
1.0984668
1.1019538
1.105577
1.1092805
1.1130533
1.1168726
1.120716
1.124559
1.1283755
1.1321385
1.1358205
1.1393946
1.1428349
1.1461176
1.1492219
1.1521307
1.154831
1.1573142
1.1595759
1.1616161
1.1634382
1.1650493
1.1664588
1.1676783
1.1687207
1.1696001
1.1703308
1.1709272
1.1714036
1.1717737
1.1720503
1.1722457
1.172371
1.1724367
1.172452
1.1724254
1.1723645
1.1722758
1.1721654
1.1720384
1.1718991
1.1717516
1.1715989
1.1714439
1.1712888
1.1711355
1.1709854
1.1708396
1.170699
1.1705641
1.1704352
1.1703123
1.1701953
1.1700837
1.169977
1.1698743
1.1697747
1.1696771
1.1695801
1.1694824
1.1693831
1.169281
1.169173
1.1690537
1.1689237
1.1687936
1.1686527
1.1684328
1.1681345
1.1680655
1.1682945
1.0583465
1.0935668
1.0743169
1.0899854
1.0847549
1.0924478
1.0935754
1.0981417
1.1016029
1.1055924
1.1096
1.1137179
1.1178969
1.1221154
1.1263428
1.1305481
1.1346983
1.1387596
1.1426983
1.1464821
1.1500814
1.1534702
1.1566273
1.1595371
1.1621895
1.1645799
1.1667093
1.1685832
1.1702111
1.1716055
1.1727816
1.1737558
1.1745456
1.1751687
1.175643
1.1759853
1.176212
1.1763384
1.1763788
1.176346
1.176252
1.1761073
1.1759216
1.1757032
1.1754595
1.1751972
1.1749218
1.1746381
1.1743504
1.1740621
1.1737762
1.173495
1.1732206
1.1729545
1.1726979
1.1724515
1.1722161
1.1719919
1.1717789
1.1715772
1.1713864
1.1712059
1.1710351
1.1708732
1.1707191
1.1705718
1.1704299
1.1702919
1.1701565
1.1700227
1.1698889
1.1697513
1.1696059
1.1694568
1.1693128
1.169149
1.1688965
1.1686009
1.1685837
1.1688199
1.0623696
1.0977326
1.079116
1.0951626
1.0907098
1.0987074
1.1007267
1.1057095
1.1098725
1.1144272
1.1190144
1.123674
1.1283552
1.1330232
1.1376365
1.1421529
1.1465297
1.1507259
1.1547038
1.1584309
1.1618807
1.1650343
1.1678801
1.1704138
1.1726381
1.1745613
1.1761968
1.1775615
1.1786749
1.1795582
1.1802335
1.1807227
1.1810474
1.181228
1.1812841
1.1812334
1.1810926
1.1808766
1.1805987
1.1802711
1.1799043
1.1795077
1.1790893
1.1786563
1.1782147
1.1777698
1.1773259
1.1768866
1.1764552
1.176034
1.1756251
1.1752301
1.17485
1.1744858
1.174138
1.1738069
1.1734925
1.1731947
1.1729131
1.1726474
1.1723969
1.1721607
1.1719379
1.1717277
1.1715286
1.1713396
1.1711591
1.1709856
1.1708176
1.1706543
1.1704932
1.1703303
1.1701636
1.1700006
1.1698461
1.1696611
1.1693807
1.1691014
1.1691445
1.1693611
1.0673811
1.1031069
1.0851893
1.1016979
1.0982401
1.1065934
1.1096525
1.1151536
1.1200855
1.1252851
1.1304975
1.1357204
1.1408918
1.1459596
1.1508685
1.1555652
1.1600013
1.1641349
1.1679331
1.1713728
1.1744411
1.1771346
1.1794588
1.1814266
1.1830566
1.1843717
1.1853978
1.1861621
1.1866922
1.1870155
1.1871581
1.1871449
1.1869986
1.1867403
1.186389
1.1859617
1.1854736
1.184938
1.1843667
1.1837697
1.1831558
1.1825327
1.1819067
1.1812832
1.1806669
1.1800615
1.17947
1.1788951
1.1783386
1.177802
1.1772866
1.1767929
1.1763216
1.1758727
1.1754463
1.1750421
1.1746598
1.1742986
1.1739581
1.1736373
1.1733354
1.1730514
1.1727841
1.1725324
1.1722949
1.1720704
1.1718571
1.1716536
1.1714586
1.1712708
1.1710872
1.1709038
1.1707211
1.1705487
1.1703859
1.1701829
1.1698846
1.1696304
1.1697319
1.1699254
1.0736746
1.1099195
1.0927377
1.1099386
1.1077058
1.1164534
1.1207065
1.1268524
1.1326176
1.1385235
1.1443697
1.1501144
1.1556773
1.1609898
1.1659874
1.170616
1.1748339
1.178613
1.1819392
1.1848115
1.1872399
1.1892441
1.1908504
1.1920902
1.1929974
1.1936072
1.1939547
1.1940735
1.1939957
1.1937508
1.1933658
1.1928651
1.1922705
1.191601
1.1908736
1.190103
1.1893019
1.1884811
1.18765
1.1868164
1.1859871
1.1851675
1.1843623
1.1835752
1.1828093
1.1820669
1.1813499
1.1806596
1.1799971
1.1793629
1.1787573
1.1781804
1.177632
1.1771118
1.1766191
1.1761533
1.1757136
1.1752991
1.1749089
1.1745418
1.1741968
1.1738725
1.1735679
1.1732816
1.1730121
1.172758
1.1725178
1.1722899
1.1720732
1.1718659
1.1716646
1.1714659
1.1712727
1.1710947
1.1709246
1.1707077
1.1704054
1.1701851
1.1703368
1.1705038
1.0815239
1.1184386
1.1022355
1.1201508
1.1195237
1.1287522
1.1343608
1.1412957
1.1479234
1.1545173
1.1608932
1.1669748
1.1726711
1.1779115
1.1826421
1.1868289
1.1904574
1.1935307
1.1960667
1.1980947
1.1996525
1.2007828
1.2015308
1.2019421
1.2020609
1.2019291
1.2015853
1.2010649
1.2003994
1.1996169
1.1987421
1.1977962
1.1967979
1.1957631
1.1947052
1.1936358
1.1925645
1.1914994
1.1904472
1.1894135
1.1884026
1.1874183
1.1864633
1.1855398
1.1846495
1.1837934
1.1829724
1.1821867
1.1814365
1.1807216
1.1800417
1.179396
1.178784
1.1782048
1.1776575
1.1771408
1.1766539
1.1761954
1.1757642
1.175359
1.1749785
1.1746213
1.1742861
1.1739715
1.173676
1.1733982
1.1731364
1.1728895
1.172656
1.1724339
1.1722196
1.172011
1.1718127
1.1716324
1.1714556
1.171229
1.1709371
1.1707601
1.1709506
1.171081
1.0911339
1.1289606
1.1144446
1.1329415
1.1343841
1.1442113
1.1512573
1.1590375
1.1664098
1.1734733
1.1800526
1.1860624
1.1914298
1.1961141
1.2001015
1.2034027
1.2060477
1.2080809
1.2095562
1.2105323
1.2110697
1.2112272
1.211061
1.2106227
1.2099591
1.2091121
1.2081182
1.2070094
1.2058133
1.2045534
1.2032496
1.201919
1.2005757
1.1992314
1.197896
1.1965775
1.1952823
1.1940159
1.1927823
1.1915849
1.1904262
1.1893079
1.1882314
1.1871975
1.1862065
1.1852586
1.1843535
1.1834908
1.1826698
1.1818898
1.1811498
1.1804486
1.1797852
1.1791584
1.1785668
1.1780091
1.1774839
1.1769899
1.1765257
1.1760898
1.1756807
1.1752971
1.1749375
1.1746005
1.1742845
1.1739881
1.1737099
1.1734486
1.1732028
1.1729701
1.1727472
1.1725338
1.1723352
1.1721555
1.1719738
1.1717424
1.1714706
1.171344
1.1715569
1.1716403
1.1033081
1.1423897
1.1301565
1.1492866
1.1532292
1.1636794
1.1719951
1.1804061
1.1881061
1.1951068
1.2012809
1.2065845
1.2110055
1.214568
1.2173213
1.2193326
1.2206791
1.2214423
1.2217028
1.2215374
1.2210168
1.2202048
1.2191577
1.2179244
1.2165472
1.2150619
1.2134989
1.2118835
1.210237
1.2085769
1.2069175
1.2052708
1.2036462
1.2020514
1.2004926
1.1989744
1.1975007
1.1960742
1.1946968
1.1933699
1.1920943
1.1908704
1.1896981
1.1885771
1.1875069
1.1864866
1.1855153
1.1845918
1.1837149
1.1828834
1.1820958
1.1813507
1.1806466
1.179982
1.1793553
1.178765
1.1782096
1.1776874
1.1771971
1.1767369
1.1763054
1.1759012
1.1755226
1.1751682
1.1748366
1.1745262
1.1742358
1.1739643
1.17371
1.1734703
1.1732429
1.1730287
1.1728333
1.1726563
1.1724729
1.172244
1.1719994
1.1719178
1.1721329
1.1721681
1.1195142
1.1598382
1.1507076
1.170186
1.1768942
1.1877522
1.1967117
1.2050672
1.2122826
1.218379
1.2233367
1.2272059
1.230065
1.2320161
1.2331712
1.2336436
1.2335419
1.2329661
1.2320057
1.2307387
1.2292324
1.2275437
1.2257204
1.2238021
1.2218215
1.2198054
1.2177757
1.2157498
1.2137422
1.2117639
1.209824
1.2079294
1.2060854
1.2042961
1.2025644
1.2008923
1.1992811
1.1977315
1.1962437
1.1948175
1.1934523
1.1921473
1.1909014
1.1897136
1.1885823
1.1875062
1.1864838
1.1855133
1.1845932
1.1837217
1.1828972
1.1821178
1.181382
1.1806879
1.1800338
1.179418
1.1788389
1.1782948
1.1777841
1.1773052
1.1768564
1.1764362
1.1760432
1.1756758
1.1753326
1.1750122
1.1747134
1.1744349
1.1741751
1.1739315
1.1737028
1.1734909
1.1733005
1.1731271
1.1729451
1.1727266
1.1725149
1.1724682
1.1726667
1.1726701
1.1414021
1.1825325
1.1774093
1.1964906
1.2054827
1.2160614
1.2245235
1.2316695
1.2373077
1.24155
1.2445105
1.2463477
1.2472246
1.2473015
1.2467255
1.2456276
1.2441204
1.2422994
1.2402438
1.2380189
1.2356775
1.2332626
1.2308083
1.2283421
1.2258856
1.2234556
1.2210655
1.2187254
1.2164431
1.2142243
1.2120733
1.2099929
1.207985
1.2060506
1.2041902
1.2024036
1.2006902
1.1990492
1.1974792
1.195979
1.1945469
1.1931813
1.1918804
1.1906423
1.1894651
1.1883469
1.1872857
1.1862796
1.1853265
1.1844245
1.1835716
1.182766
1.1820057
1.1812888
1.1806136
1.1799781
1.1793808
1.1788198
1.1782934
1.1778
1.1773381
1.176906
1.1765022
1.1761253
1.1757738
1.1754464
1.175142
1.1748594
1.1745965
1.1743516
1.1741239
1.1739162
1.1737312
1.1735615
1.1733831
1.17318
1.1730042
1.1729895
1.1731663
1.1731253
1.1715621
1.2110626
1.2111505
1.228831
1.2377409
1.2466407
1.253201
1.2579508
1.2610085
1.2626527
1.2631239
1.2626563
1.2614518
1.2596828
1.2574909
1.2549914
1.2522763
1.2494185
1.2464751
1.2434907
1.2404998
1.2375288
1.2345979
1.2317223
1.2289134
1.2261794
1.2235263
1.220958
1.2184771
1.216085
1.2137821
1.2115683
1.2094429
1.2074045
1.2054518
1.2035829
1.201796
1.200089
1.1984597
1.1969058
1.1954251
1.1940153
1.192674
1.1913989
1.1901878
1.1890383
1.1879482
1.1869152
1.1859372
1.1850121
1.1841377
1.1833119
1.1825329
1.1817985
1.181107
1.1804563
1.1798448
1.1792708
1.1787324
1.178228
1.177756
1.1773149
1.1769031
1.1765193
1.176162
1.17583
1.1755221
1.1752371
1.1749731
1.1747286
1.1745038
1.1743011
1.1741212
1.1739553
1.1737831
1.1735992
1.1734567
1.1734609
1.1736089
1.1735545
1.2125144
1.247023
1.2499718
1.2639412
1.2714669
1.2770353
1.2801408
1.281468
1.2813309
1.2800981
1.278045
1.2754002
1.2723403
1.2690019
1.2654889
1.2618799
1.2582335
1.2545937
1.2509927
1.247454
1.2439946
1.2406266
1.237358
1.2341942
1.2311385
1.2281924
1.2253561
1.2226292
1.2200104
1.2174978
1.2150893
1.2127825
1.2105749
1.2084636
1.2064458
1.2045187
1.2026795
1.2009253
1.1992531
1.1976603
1.1961441
1.1947016
1.1933303
1.1920275
1.1907906
1.1896173
1.1885049
1.1874512
1.1864537
1.1855104
1.1846189
1.1837771
1.182983
1.1822345
1.1815297
1.1808667
1.1802437
1.179659
1.1791108
1.1785974
1.1781173
1.1776689
1.1772508
1.1768615
1.1764998
1.1761644
1.1758542
1.1755678
1.1753036
1.1750606
1.1748393
1.1746413
1.1744658
1.1743038
1.1741409
1.1739788
1.1738649
1.173874
1.1739828
1.1739203
1.2616623
1.2877863
1.292035
1.2997039
1.3025813
1.3034511
1.3023906
1.3000809
1.296877
1.2930877
1.2889267
1.2845519
1.2800751
1.2755762
1.2711109
1.2667183
1.2624249
1.2582487
1.2542009
1.2502884
1.2465148
1.2428812
1.2393872
1.2360312
1.2328106
1.2297223
1.2267629
1.2239287
1.221216
1.2186209
1.2161394
1.2137677
1.211502
1.2093386
1.2072738
1.2053041
1.203426
1.2016362
1.1999314
1.1983083
1.1967641
1.1952955
1.1938999
1.1925743
1.1913161
1.1901226
1.1889912
1.1879196
1.1869052
1.1859458
1.1850392
1.184183
1.1833754
1.1826141
1.1818972
1.1812229
1.1805893
1.1799947
1.1794373
1.1789156
1.1784279
1.1779728
1.1775488
1.1771545
1.1767887
1.1764501
1.1761377
1.1758501
1.175586
1.1753447
1.1751265
1.1749322
1.1747599
1.1746025
1.1744511
1.1743113
1.1742184
1.1742174
1.1742794
1.1742242
1.3163737
1.3280623
1.3294939
1.3295852
1.3269349
1.3230426
1.3182214
1.3129045
1.3073282
1.301664
1.2960205
1.2904687
1.2850531
1.279801
1.2747279
1.2698416
1.2651447
1.2606364
1.2563137
1.2521722
1.2482065
1.2444109
1.2407794
1.2373057
1.233984
1.2308082
1.2277727
1.2248718
1.2221002
1.2194527
1.2169246
1.2145109
1.2122073
1.2100095
1.2079132
1.2059145
1.2040096
1.2021949
1.2004669
1.1988222
1.1972576
1.1957699
1.1943561
1.1930133
1.1917388
1.1905298
1.1893837
1.188298
1.1872702
1.1862981
1.1853793
1.1845116
1.1836929
1.1829212
1.1821945
1.1815109
1.1808687
1.180266
1.1797011
1.1791725
1.1786786
1.1782178
1.1777889
1.1773904
1.1770212
1.1766801
1.1763659
1.1760774
1.1758135
1.1755737
1.175358
1.1751663
1.1749967
1.1748444
1.1747053
1.1745846
1.1745039
1.1744861
1.1745105
1.1744715
1.3663219
1.360568
1.3561985
1.3502286
1.3430359
1.3356238
1.328164
1.3208402
1.3137353
1.3068949
1.3003386
1.2940715
1.2880903
1.2823868
1.2769506
1.2717698
1.2668322
1.2621257
1.2576388
1.2533601
1.2492793
1.2453863
1.2416719
1.2381273
1.2347444
1.2315157
1.2284339
1.2254924
1.222685
1.2200057
1.2174491
1.2150098
1.212683
1.210464
1.2083484
1.2063319
1.2044106
1.2025805
1.2008382
1.19918
1.1976027
1.196103
1.1946779
1.1933244
1.1920396
1.1908207
1.1896653
1.1885706
1.1875343
1.1865539
1.1856272
1.184752
1.1839261
1.1831475
1.1824143
1.1817245
1.1810763
1.180468
1.179898
1.1793645
1.1788661
1.1784013
1.1779687
1.1775671
1.1771951
1.1768517
1.1765357
1.1762461
1.1759819
1.1757426
1.1755278
1.1753371
1.1751687
1.1750203
1.1748905
1.1747831
1.1747083
1.174675
1.1746712
1.1746487
1.3933199
1.3820073
1.3712139
1.3617684
1.3524537
1.3434666
1.3348827
1.326719
1.3189759
1.3116375
1.3046839
1.2980928
1.2918417
1.285909
1.2802744
1.274919
1.2698253
1.2649775
1.2603608
1.2559619
1.2517685
1.2477695
1.2439545
1.240314
1.2368392
1.2335221
1.2303552
1.2273315
1.2244445
1.2216882
1.2190568
1.2165451
1.214148
1.2118608
1.209679
1.2075983
1.2056147
1.2037243
1.2019236
1.2002089
1.1985769
1.1970243
1.1955482
1.1941454
1.1928132
1.1915488
1.1903495
1.1892127
1.188136
1.187117
1.1861534
1.1852429
1.1843834
1.1835729
1.1828093
1.1820908
1.1814155
1.1807816
1.1801875
1.1796315
1.1791121
1.1786278
1.1781771
1.1777588
1.1773717
1.1770145
1.1766862
1.1763858
1.1761123
1.1758652
1.1756439
1.1754475
1.1752749
1.1751248
1.1749973
1.1748942
1.1748196
1.1747759
1.1747582
1.1747481
1.1643125
1.1703899
1.1831361
1.1944308
1.198526
1.1983576
1.1993265
1.1997222
1.199872
1.1997984
1.1994925
1.1990548
1.1984839
1.1978445
1.1971627
1.1964523
1.1957109
1.194943
1.1941531
1.1933447
1.192521
1.1916849
1.1908389
1.1899855
1.1891266
1.1882645
1.1874009
1.1865376
1.1856764
1.1848188
1.1839664
1.1831208
1.1822833
1.1814554
1.1806385
1.1798339
1.1790429
1.1782668
1.1775069
1.1767644
1.1760406
1.1753366
1.1746536
1.1739929
1.1733555
1.1727426
1.1721552
1.1715943
1.1710608
1.1705556
1.1700793
1.1696326
1.169216
1.1688298
1.1684743
1.1681494
1.167855
1.1675906
1.1673559
1.1671496
1.1669706
1.166817
1.1666873
1.1665793
1.1664909
1.1664186
1.166362
1.1663123
1.1662803
1.1662319
1.1662273
1.1661327
1.1661879
1.1659595
1.1661805
1.1656497
1.1661821
1.1651942
1.1661862
1.1645472
1.1676543
1.175759
1.1918454
1.1969406
1.1970166
1.1965388
1.1958169
1.1954493
1.1950244
1.1945587
1.1940585
1.1935931
1.193126
1.1926558
1.192162
1.1916441
1.1911014
1.1905356
1.1899473
1.1893372
1.1887066
1.1880571
1.1873903
1.186708
1.1860122
1.1853048
1.1845877
1.183863
1.1831327
1.1823986
1.1816628
1.180927
1.1801932
1.1794632
1.1787387
1.1780214
1.1773131
1.1766155
1.1759301
1.1752586
1.1746025
1.1739633
1.1733425
1.1727416
1.1721618
1.1716047
1.1710713
1.1705629
1.1700804
1.1696249
1.1691972
1.1687979
1.1684276
1.1680868
1.1677756
1.1674939
1.1672418
1.1670186
1.1668237
1.1666563
1.1665146
1.1663972
1.1663021
1.1662271
1.1661702
1.1661279
1.1660993
1.1660767
1.1660688
1.1660451
1.1660589
1.1659895
1.166055
1.1658537
1.1660742
1.1655786
1.1661102
1.1651362
1.1661639
1.1644749
1.1584237
1.1740632
1.1860843
1.1907424
1.1905723
1.1900518
1.1894433
1.1892415
1.1889359
1.1887379
1.1884745
1.1882235
1.1879229
1.1876073
1.1872607
1.1868932
1.186501
1.1860859
1.1856481
1.1851884
1.184708
1.184208
1.1836895
1.1831538
1.1826024
1.1820366
1.181458
1.1808682
1.1802687
1.1796614
1.1790478
1.1784299
1.1778093
1.177188
1.1765678
1.1759505
1.175338
1.174732
1.1741345
1.1735471
1.1729717
1.17241
1.1718637
1.1713345
1.1708239
1.1703335
1.1698646
1.1694186
1.1689967
1.1685999
1.1682292
1.1678854
1.167569
1.1672806
1.1670203
1.1667881
1.1665839
1.1664071
1.1662572
1.166133
1.1660329
1.1659552
1.1658981
1.1658594
1.1658367
1.1658268
1.1658284
1.1658345
1.1658524
1.1658546
1.1658885
1.1658444
1.1659222
1.165747
1.1659698
1.1655064
1.1660372
1.1650781
1.1661397
1.1644043
1.1573897
1.1770737
1.1845798
1.1879146
1.1867538
1.1863701
1.1856382
1.1853848
1.1849338
1.1846321
1.1842531
1.1839416
1.1836042
1.1832871
1.182957
1.1826251
1.1822836
1.1819336
1.1815731
1.1812011
1.180817
1.1804202
1.1800104
1.1795875
1.1791518
1.1787037
1.1782436
1.1777725
1.1772912
1.1768009
1.1763027
1.1757982
1.1752887
1.1747757
1.174261
1.1737462
1.173233
1.1727233
1.1722188
1.1717213
1.1712328
1.170755
1.1702898
1.1698389
1.169404
1.1689868
1.1685888
1.1682114
1.1678559
1.1675235
1.1672152
1.1669319
1.1666742
1.1664426
1.1662373
1.1660584
1.1659057
1.1657786
1.1656764
1.165598
1.1655417
1.1655058
1.1654885
1.1654874
1.1655002
1.1655237
1.1655564
1.1655919
1.1656362
1.1656644
1.1657192
1.1656996
1.1657914
1.1656402
1.1658685
1.1654331
1.1659666
1.1650218
1.1661113
1.1643409
1.1551059
1.1750853
1.1804651
1.183113
1.1814725
1.1813458
1.1805775
1.1804499
1.1800107
1.1798078
1.1794906
1.1792661
1.1789972
1.178758
1.1785029
1.1782518
1.1779934
1.1777304
1.1774599
1.1771811
1.1768932
1.1765954
1.1762872
1.1759683
1.1756386
1.1752981
1.174947
1.1745856
1.1742146
1.1738345
1.1734463
1.1730509
1.1726494
1.172243
1.1718332
1.1714213
1.1710089
1.1705977
1.1701893
1.1697855
1.1693881
1.168999
1.1686199
1.1682527
1.167899
1.1675607
1.1672392
1.166936
1.1666525
1.16639
1.1661494
1.1659317
1.1657376
1.1655674
1.1654216
1.1653
1.1652026
1.1651286
1.1650774
1.1650477
1.1650379
1.1650462
1.1650707
1.1651091
1.165159
1.1652173
1.1652823
1.165348
1.1654195
1.1654741
1.1655507
1.1655552
1.165662
1.1655346
1.1657694
1.1653601
1.1658973
1.1649672
1.1660807
1.1642823
1.1497914
1.1719972
1.1757548
1.1781674
1.1762217
1.176449
1.1756513
1.1756753
1.1752554
1.1751454
1.1748705
1.1747197
1.1745105
1.174344
1.1741585
1.1739814
1.1737977
1.1736124
1.1734218
1.1732254
1.1730224
1.1728121
1.172594
1.1723676
1.1721327
1.1718889
1.1716362
1.1713747
1.1711047
1.1708265
1.1705405
1.1702476
1.1699483
1.1696438
1.169335
1.1690233
1.1687099
1.1683962
1.1680839
1.1677745
1.1674697
1.1671712
1.1668809
1.1666003
1.1663313
1.1660754
1.1658342
1.1656093
1.1654019
1.1652132
1.1650444
1.1648962
1.1647694
1.1646644
1.1645815
1.1645206
1.1644815
1.1644636
1.1644659
1.1644874
1.1645261
1.1645805
1.1646484
1.1647277
1.1648159
1.1649099
1.1650079
1.1651046
1.1652037
1.1652852
1.1653836
1.165412
1.1655348
1.1654308
1.1656725
1.1652881
1.1658297
1.1649147
1.1660491
1.1642284
1.1444471
1.1693004
1.1709199
1.1732772
1.1710947
1.1716113
1.1707686
1.1709395
1.1705416
1.1705374
1.1703195
1.1702537
1.1701121
1.1700212
1.1699049
1.1697998
1.169687
1.1695747
1.1694586
1.1693386
1.169214
1.1690841
1.1689484
1.1688063
1.1686575
1.1685017
1.1683387
1.1681683
1.1679907
1.1678061
1.1676147
1.167417
1.1672136
1.1670052
1.1667926
1.166577
1.1663593
1.1661408
1.1659229
1.1657071
1.1654947
1.1652875
1.1650869
1.1648947
1.1647123
1.1645413
1.1643832
1.1642394
1.1641112
1.1639996
1.1639058
1.1638305
1.1637744
1.1637377
1.1637208
1.1637235
1.1637455
1.1637861
1.1638444
1.163919
1.1640082