/*--------------------------------*- C++ -*----------------------------------*\
| =========                 |                                                 |
| \\      /  F ield         | OpenFOAM: The Open Source CFD Toolbox           |
|  \\    /   O peration     | Version:  2512                                  |
|   \\  /    A nd           | Website:  www.openfoam.com                      |
|    \\/     M anipulation  |                                                 |
\*---------------------------------------------------------------------------*/
FoamFile
{
    version     2.0;
    format      ascii;
    arch        "LSB;label=32;scalar=64";
    class       volScalarField;
    location    "0.15";
    object      T;
}
// * * * * * * * * * * * * * * * * * * * * * * * * * * * * * * * * * * * * * //

dimensions      [0 0 0 1 0 0 0];

internalField   nonuniform List<scalar> 
16000
(
292.65356
284.875
289.27463
286.97859
288.64214
287.89085
288.55588
288.35713
288.65946
288.67121
288.83613
288.92326
289.04791
289.1585
289.27717
289.39604
289.51818
289.64298
289.77083
289.90186
290.03617
290.17385
290.31496
290.45953
290.60755
290.75898
290.91376
291.07179
291.23294
291.39705
291.56391
291.7333
291.90497
292.07862
292.25393
292.43055
292.60813
292.78627
292.96457
293.14262
293.31999
293.49626
293.67101
293.84382
294.01431
294.1821
294.34683
294.50818
294.66585
294.8196
294.96919
295.11445
295.25524
295.39146
295.52304
295.64997
295.77227
295.89
296.00326
296.11218
296.21697
296.31784
296.41503
296.50883
296.59955
296.68751
296.77309
296.85666
296.93872
297.01984
297.10066
297.18172
297.26331
297.34554
297.42887
297.51176
297.61041
297.65826
297.8307
297.83105
292.34226
284.45852
289.00745
286.59738
288.35456
287.53807
288.2619
288.03668
288.36233
288.37562
288.54746
288.64387
288.77424
288.89386
289.02004
289.14755
289.27826
289.412
289.54901
289.68944
289.83338
289.9809
290.13203
290.28678
290.44511
290.60694
290.77218
290.94068
291.11228
291.28676
291.46388
291.64336
291.8249
292.00815
292.19274
292.37828
292.56435
292.75053
292.93638
293.12143
293.30525
293.48738
293.6674
293.84488
294.01944
294.19071
294.35834
294.52205
294.68157
294.83667
294.98719
295.13297
295.27393
295.41002
295.54121
295.66753
295.78906
295.90589
296.01814
296.126
296.22969
296.32944
296.42553
296.51825
296.60792
296.6949
296.77954
296.86224
296.94347
297.0238
297.10391
297.18438
297.26555
297.34746
297.43039
297.51605
297.60391
297.68068
297.80237
297.86082
292.01668
284.07982
288.70995
286.27573
288.06008
287.24679
287.97146
287.76466
288.08738
288.11766
288.29166
288.40033
288.53769
288.66732
288.80271
288.94013
289.08094
289.2251
289.3728
289.52418
289.67929
289.83818
290.00085
290.16725
290.33732
290.51094
290.68795
290.86816
291.05136
291.23726
291.42557
291.61594
291.808
292.00135
292.19555
292.39016
292.5847
292.77869
292.97165
293.16308
293.35252
293.5395
293.72358
293.90435
294.08144
294.25449
294.42322
294.58735
294.74669
294.90106
295.05035
295.19448
295.33341
295.46717
295.59579
295.71936
295.83801
295.95187
296.06114
296.16602
296.26676
296.36364
296.45694
296.54699
296.63413
296.7187
296.80109
296.88167
296.9609
297.03936
297.11769
297.19653
297.2762
297.35676
297.43861
297.5231
297.60867
297.69196
297.80189
297.86784
291.72454
283.73233
288.46824
285.98883
287.81251
286.98283
287.72025
287.52394
287.84985
287.89522
288.07341
288.19483
288.34029
288.48086
288.62646
288.77477
288.92665
289.08216
289.24146
289.40463
289.5717
289.7427
289.91757
290.09625
290.2786
290.46446
290.65363
290.84585
291.04082
291.23823
291.43768
291.63877
291.84104
292.04404
292.24725
292.45017
292.65226
292.853
293.05187
293.24834
293.44194
293.63219
293.81866
294.00098
294.17878
294.35177
294.5197
294.68238
294.83967
294.99145
295.1377
295.27841
295.41362
295.54341
295.6679
295.78723
295.90158
296.01116
296.11619
296.21691
296.31361
296.40659
296.49616
296.58266
296.66643
296.74784
296.82727
296.90508
296.98173
297.05775
297.13381
297.21054
297.28831
297.36721
297.44765
297.5305
297.61441
297.70099
297.79755
297.87895
291.45623
283.41943
288.23421
285.73066
287.61105
286.76189
287.50301
287.32599
287.65089
287.71552
287.89793
288.03372
288.18877
288.34146
288.49866
288.65908
288.82325
288.9913
289.16333
289.33941
289.51954
289.7037
289.8918
290.08372
290.27927
290.47822
290.68029
290.88515
291.09242
291.3017
291.5125
291.72433
291.93667
292.14896
292.36063
292.57109
292.77976
292.98608
293.1895
293.38948
293.58553
293.77721
293.96412
294.14591
294.32228
294.49302
294.65794
294.81693
294.96993
295.11694
295.258
295.39319
295.52265
295.64652
295.765
295.8783
295.98666
296.09033
296.18959
296.28472
296.37603
296.46384
296.54849
296.63031
296.70968
296.78695
296.8625
296.93669
297.00995
297.08279
297.15586
297.2298
297.30501
297.38161
297.45991
297.54042
297.62301
297.70918
297.79969
297.88556
291.21778
283.15132
288.03704
285.51715
287.40486
286.58788
287.33501
287.17515
287.49995
287.58401
287.77168
287.92256
288.08846
288.25405
288.42386
288.5973
288.77474
288.95631
289.14209
289.33211
289.52634
289.7247
289.92702
290.1331
290.34269
290.55545
290.77102
290.98897
291.2088
291.43001
291.65202
291.87424
292.09604
292.31679
292.53583
292.75254
292.96629
293.17647
293.38253
293.58395
293.78027
293.97107
294.15602
294.33484
294.50733
294.67335
294.83283
294.98575
295.13216
295.27216
295.40588
295.53352
295.65529
295.77142
295.88219
295.98786
296.08874
296.18512
296.27732
296.36565
296.45044
296.53205
296.6108
296.68705
296.76117
296.83352
296.90446
296.97435
297.04359
297.11265
297.18217
297.25276
297.32489
297.39872
297.47435
297.55216
297.63287
297.71765
297.80255
297.89233
291.01103
282.92763
287.87375
285.35099
287.25213
286.4655
287.20338
287.07726
287.39336
287.50414
287.69806
287.86435
288.04225
288.22156
288.40518
288.59291
288.78499
288.98153
289.18254
289.388
289.59777
289.8117
290.02952
290.25095
290.47558
290.70299
290.93269
291.16412
291.39667
291.6297
291.86254
292.09446
292.32477
292.55274
292.77766
292.99884
293.21565
293.42749
293.6338
293.83412
294.02803
294.21522
294.39543
294.5685
294.73434
294.89293
295.04432
295.18862
295.326
295.45667
295.58088
295.69892
295.81108
295.91769
296.01908
296.11559
296.20756
296.29534
296.37926
296.45966
296.5369
296.61133
296.68329
296.75313
296.82122
296.88792
296.95357
297.01852
297.08313
297.14784
297.21324
297.27996
297.34849
297.419
297.49144
297.56612
297.64442
297.72671
297.80722
297.89821
290.83605
282.74859
287.74379
285.22124
287.12805
286.36782
287.11168
287.00006
287.34359
287.47419
287.67599
287.85877
288.05084
288.24579
288.44534
288.64947
288.8583
289.07186
289.29008
289.51283
289.73988
289.97096
290.20569
290.44363
290.68427
290.92702
291.17124
291.41625
291.66128
291.90557
292.14831
292.38869
292.62591
292.85919
293.08779
293.31099
293.52818
293.73878
293.94231
294.13839
294.32672
294.50709
294.6794
294.8436
294.99977
295.14803
295.28858
295.42166
295.54758
295.66667
295.77928
295.88579
295.98658
296.08206
296.17261
296.25862
296.34047
296.41852
296.49315
296.5647
296.63354
296.7
296.76444
296.82721
296.88864
296.94909
297.00889
297.06837
297.12785
297.18773
297.24855
297.31093
297.37541
297.44215
297.51094
297.58216
297.65757
297.73659
297.81274
297.90435
290.68518
282.6105
287.64897
285.12967
287.06277
286.36256
287.0892
287.02122
287.33479
287.49366
287.70762
287.9096
288.11915
288.3325
288.55072
288.77382
289.00185
289.23476
289.47237
289.71444
289.9606
290.21043
290.4634
290.71891
290.97627
291.23473
291.49347
291.75164
292.00833
292.26264
292.51365
292.76047
293.00222
293.23809
293.46733
293.68929
293.90339
294.10916
294.30624
294.49438
294.67344
294.84339
295.00429
295.15629
295.29963
295.4346
295.56155
295.68089
295.79302
295.89841
295.99751
296.09077
296.17866
296.26162
296.34008
296.41448
296.4852
296.55265
296.61718
296.67915
296.73891
296.79681
296.85317
296.90832
296.9626
297.01634
297.06985
297.12343
297.17738
297.23205
297.2879
297.34554
297.40556
297.46811
297.53286
297.60032
297.67239
297.74745
297.81928
297.9107
290.5579
282.51513
287.59399
285.09894
287.04709
286.35076
287.07545
287.05809
287.38666
287.57369
287.80322
288.02636
288.25621
288.49056
288.7301
288.9748
289.22457
289.47924
289.73846
290.00185
290.26886
290.53887
290.81115
291.08489
291.3592
291.63313
291.90567
292.17579
292.44245
292.7046
292.96124
293.21142
293.45426
293.68897
293.91486
294.13138
294.33809
294.53469
294.721
294.89697
295.06269
295.21833
295.36417
295.50056
295.62793
295.74675
295.85752
295.96077
296.05706
296.14691
296.23088
296.30948
296.38322
296.45258
296.51803
296.57999
296.63888
296.69509
296.74896
296.80086
296.8511
296.90003
296.94793
296.99513
297.04193
297.08864
297.13555
297.18294
297.23107
297.28022
297.33081
297.38342
297.43865
297.49664
297.55705
297.62051
297.68877
297.75919
297.82677
297.91759
290.45713
282.46994
287.58209
285.16026
287.07711
286.46185
287.13774
287.19537
287.50338
287.72098
287.97021
288.21725
288.47068
288.72916
288.99307
289.26228
289.53653
289.81545
290.09853
290.38512
290.67447
290.9657
291.25783
291.54981
291.8405
292.12874
292.41332
292.69304
292.96672
293.23326
293.4916
293.7408
293.98005
294.20868
294.42614
294.63209
294.82631
295.00873
295.17946
295.33871
295.48682
295.6242
295.75138
295.86891
295.97741
296.0775
296.16984
296.25507
296.33382
296.40672
296.47434
296.53725
296.59598
296.65103
296.70286
296.7519
296.79854
296.84315
296.88608
296.92765
296.96817
297.00792
297.04719
297.08627
297.12542
297.16494
297.20508
297.24609
297.28821
297.33167
297.37681
297.42418
297.47436
297.52749
297.58334
297.64264
297.70667
297.7719
297.83524
297.92496
290.38938
282.48472
287.61891
285.2537
287.13176
286.59937
287.27832
287.37009
287.695
287.94455
288.21817
288.49243
288.77309
289.05914
289.35074
289.64755
289.94909
290.25474
290.56369
290.87503
291.18768
291.50045
291.81208
292.12123
292.42651
292.72651
293.01987
293.30526
293.58144
293.84728
294.10181
294.3442
294.57382
294.79023
294.99318
295.18261
295.35862
295.5215
295.67164
295.80957
295.93591
296.05134
296.15659
296.25243
296.33963
296.41894
296.49112
296.55689
296.61694
296.67193
296.72247
296.76912
296.81241
296.85282
296.8908
296.92676
296.96105
296.99403
297.02599
297.05724
297.08803
297.11862
297.14928
297.18023
297.21174
297.24404
297.27738
297.31197
297.34802
297.3857
297.42531
297.46733
297.51229
297.56035
297.6115
297.66655
297.72599
297.7856
297.84478
297.93289
290.36071
282.56978
287.71657
285.43701
287.25815
286.82549
287.47968
287.63403
287.97071
288.25496
288.55783
288.86329
289.17526
289.49277
289.81566
290.14332
290.47493
290.80952
291.1459
291.48278
291.8187
292.15214
292.48147
292.80507
293.1213
293.4286
293.72547
294.01055
294.28268
294.54085
294.78431
295.01252
295.2252
295.42227
295.60389
295.7704
295.92232
296.06028
296.18504
296.29744
296.39837
296.48873
296.56945
296.64144
296.70558
296.76272
296.81367
296.85919
296.89997
296.93668
296.96991
297.0002
297.02805
297.05391
297.07819
297.10124
297.1234
297.14496
297.16619
297.18734
297.20863
297.23028
297.25251
297.27552
297.29952
297.32473
297.35136
297.37961
297.40962
297.44156
297.47567
297.51232
297.55196
297.59482
297.64122
297.69198
297.7465
297.80021
297.8555
297.94153
290.36867
282.73011
287.87368
285.67842
287.47489
287.12621
287.76921
287.9811
288.34135
288.66398
289.00179
289.34333
289.69129
290.04454
290.40249
290.76411
291.12813
291.49311
291.85739
292.21921
292.57669
292.92791
293.27092
293.60384
293.92487
294.23238
294.52492
294.8013
295.06061
295.30221
295.52576
295.73121
295.91877
296.0889
296.24223
296.37957
296.50187
296.61014
296.70547
296.78896
296.8617
296.92479
296.97926
297.02612
297.0663
297.10068
297.13007
297.15521
297.17678
297.19539
297.2116
297.2259
297.23874
297.25051
297.26156
297.2722
297.28272
297.29334
297.30429
297.31578
297.32799
297.34108
297.35524
297.37062
297.38741
297.40579
297.42593
297.44799
297.47212
297.49845
297.52716
297.55853
297.59286
297.63048
297.67215
297.7186
297.76793
297.81552
297.86735
297.95096
290.41992
282.98358
288.09359
286.01261
287.77595
287.52069
288.15475
288.43035
288.82141
289.18738
289.56627
289.94939
290.33835
290.73164
291.12806
291.52601
291.9236
292.31882
292.70946
293.09324
293.46782
293.83093
294.18039
294.51419
294.83058
295.12811
295.40566
295.6625
295.89825
296.11288
296.30671
296.48033
296.63458
296.77047
296.88919
296.992
297.08021
297.15517
297.2182
297.27058
297.31355
297.34828
297.37586
297.3973
297.41351
297.42535
297.43359
297.43889
297.44189
297.44313
297.44308
297.44218
297.4408
297.43927
297.43787
297.43686
297.43644
297.43682
297.43815
297.44059
297.44428
297.44935
297.45592
297.46413
297.47411
297.48601
297.49997
297.51613
297.53461
297.55553
297.57903
297.60528
297.63442
297.66689
297.70387
297.74596
297.78997
297.83154
297.88037
297.96058
290.51873
283.35086
288.36175
286.44322
288.15409
288.01881
288.65321
288.99614
289.42852
289.84442
290.27134
290.70197
291.13681
291.57373
292.01077
292.44557
292.87556
293.29801
293.7101
294.10907
294.49222
294.8571
295.20155
295.52379
295.82248
296.09675
296.34621
296.5709
296.77127
296.94813
297.10258
297.23593
297.34967
297.44535
297.52462
297.58909
297.64036
297.67995
297.70933
297.72985
297.74278
297.74928
297.7504
297.74708
297.74019
297.73048
297.71864
297.70524
297.69083
297.67585
297.6607
297.64572
297.63121
297.61743
297.60458
297.59286
297.58242
297.57339
297.5659
297.56004
297.55591
297.55359
297.55317
297.55474
297.55841
297.56427
297.57245
297.58306
297.5962
297.61199
297.63053
297.65189
297.67605
297.70357
297.73591
297.77351
297.81218
297.84811
297.89439
297.96987
290.66881
283.84235
288.69645
286.98492
288.64334
288.63895
289.28532
289.70241
290.18696
290.66031
291.14201
291.62534
292.10953
292.59161
293.06868
293.53746
293.99453
294.43646
294.85993
295.26187
295.63961
295.99095
296.31429
296.60861
296.87352
297.10919
297.3163
297.49596
297.64963
297.779
297.88596
297.97249
298.04058
298.09222
298.12932
298.15371
298.1671
298.17106
298.16707
298.15643
298.14033
298.11985
298.09592
298.06938
298.04097
298.01133
297.98102
297.95052
297.92024
297.89053
297.86171
297.83403
297.80769
297.78288
297.75974
297.7384
297.71895
297.70147
297.68604
297.67271
297.66152
297.65253
297.64578
297.64132
297.63923
297.63957
297.64243
297.64789
297.65605
297.66703
297.68091
297.69763
297.71714
297.74004
297.76784
297.80064
297.83394
297.86488
297.90869
297.97895
290.87479
284.41658
289.128
287.66097
289.26546
289.4087
290.08154
290.57959
291.12685
291.66459
292.20637
292.74543
293.27944
293.80429
294.31584
294.80983
295.28206
295.72867
296.1463
296.53225
296.88457
297.2021
297.48451
297.73217
297.94611
298.12786
298.27939
298.40292
298.50087
298.57571
298.62993
298.66594
298.68605
298.69243
298.68708
298.67184
298.64837
298.61816
298.58255
298.54273
298.49971
298.45443
298.40765
298.36007
298.31228
298.26477
298.21798
298.17226
298.12792
298.0852
298.04432
298.00543
297.96868
297.93417
297.90198
297.87217
297.84479
297.81987
297.79743
297.77749
297.76006
297.74514
297.73275
297.72291
297.71565
297.71102
297.70905
297.70982
297.71341
297.71994
297.72944
297.74182
297.75705
297.77576
297.79921
297.82694
297.85462
297.8813
297.92294
297.9872
291.15357
285.1433
289.73677
288.5092
290.05805
290.36211
291.0778
291.66301
292.28198
292.88946
293.49373
294.08728
294.66577
295.22365
295.75565
296.25681
296.72287
297.15045
297.53721
297.88187
298.18421
298.44496
298.66566
298.84848
298.99607
299.11136
299.19747
299.25753
299.29462
299.31168
299.3115
299.29663
299.26942
299.23197
299.1862
299.13376
299.07613
299.01462
298.95034
298.88427
298.81724
298.74997
298.68307
298.61704
298.55233
298.48929
298.4282
298.36932
298.31284
298.2589
298.20762
298.15909
298.11337
298.07051
298.03052
297.99341
297.95919
297.92783
297.89932
297.87364
297.85076
297.83067
297.81334
297.79877
297.78695
297.77789
297.77162
297.76817
297.76763
297.77007
297.77551
297.78385
297.79515
297.8101
297.82952
297.85216
297.87416
297.89687
297.93645
297.99616
291.5384
286.04766
290.50209
289.56775
291.06183
291.53604
292.31414
292.99316
293.69038
294.36885
295.03134
295.66899
296.27549
296.84435
297.37013
297.84856
298.27682
298.65355
298.97881
299.2539
299.48111
299.66355
299.80481
299.90881
299.97955
300.02102
300.03705
300.03123
300.00688
299.96704
299.91442
299.85143
299.78021
299.70261
299.62026
299.53455
299.44668
299.35769
299.26843
299.17965
299.09196
299.00586
298.92179
298.84009
298.76104
298.68485
298.61171
298.54173
298.47502
298.41163
298.3516
298.29495
298.24168
298.19176
298.14518
298.10189
298.06185
298.02502
297.99133
297.96074
297.9332
297.90866
297.88706
297.86838
297.85259
297.83966
297.8296
297.82243
297.81819
297.81694
297.81864
297.82323
297.83093
297.84246
297.85816
297.87606
297.89282
297.91199
297.94955
298.00504
292.07137
287.1957
291.43587
290.8738
292.32789
292.98055
293.84131
294.61823
295.39196
296.13087
296.83245
297.48702
298.08789
298.62958
299.10873
299.52402
299.87599
300.16687
300.40014
300.5802
300.712
300.80078
300.85175
300.86997
300.86021
300.82684
300.77385
300.70476
300.62271
300.53043
300.43031
300.32437
300.21436
300.10178
299.98788
299.87372
299.76019
299.64801
299.5378
299.43005
299.32516
299.22346
299.12519
299.03055
298.93968
298.85267
298.7696
298.69049
298.61536
298.54418
298.47694
298.41358
298.35406
298.2983
298.24625
298.19781
298.15292
298.1115
298.07346
298.03873
298.00724
297.97891
297.95367
297.93147
297.91226
297.89599
297.88263
297.8722
297.86471
297.86015
297.85848
297.85966
297.86405
297.87234
297.88449
297.89815
297.91063
297.92696
297.96235
298.01213
292.79062
288.64625
292.64924
292.4956
293.93232
294.76499
295.71732
296.58188
297.41017
298.17579
298.87362
299.49589
300.03893
300.50156
300.8853
301.19382
301.43241
301.60739
301.72564
301.7942
301.81988
301.80914
301.76789
301.70146
301.61457
301.51134
301.39534
301.26962
301.1368
300.99907
300.85829
300.716
300.57349
300.43182
300.29188
300.15438
300.01988
299.88886
299.76167
299.6386
299.51986
299.4056
299.29592
299.19088
299.09051
298.99482
298.90376
298.81731
298.73539
298.65793
298.58485
298.51606
298.45145
298.39093
298.3344
298.28174
298.23285
298.18763
298.14598
298.1078
298.07299
298.04147
298.01316
297.98796
297.96583
297.94669
297.9305
297.91725
297.90692
297.89946
297.89479
297.89294
297.89432
297.89951
297.90812
297.91783
297.92698
297.94138
297.97405
298.01674
293.70175
290.51357
294.22505
294.5226
295.9597
296.95659
297.97918
298.89027
299.71876
300.44685
301.07279
301.59536
302.01804
302.3468
302.58975
302.75609
302.85547
302.89741
302.8909
302.84417
302.76458
302.65858
302.53173
302.38878
302.23375
302.07001
301.90036
301.72714
301.55225
301.37727
301.20347
301.0319
300.86338
300.69857
300.538
300.38207
300.23109
300.08527
299.94479
299.80972
299.68014
299.55605
299.43744
299.32426
299.21645
299.11392
299.01659
298.92434
298.83705
298.75461
298.67689
298.60375
298.53507
298.47072
298.41056
298.35447
298.30232
298.25399
298.20936
298.16832
298.13075
298.09656
298.06565
298.03793
298.01331
297.99172
297.97311
297.95743
297.94463
297.93465
297.92737
297.9229
297.92162
297.92388
297.92901
297.93493
297.94116
297.95393
297.98348
298.01861
294.92472
292.91741
296.27511
297.02496
298.44412
299.578
300.60153
301.47397
302.21324
302.815
303.2878
303.64101
303.88738
304.04047
304.11405
304.12117
304.07376
303.98238
303.85616
303.70286
303.52899
303.33997
303.14023
302.93341
302.72247
302.50979
302.29729
302.0865
301.87864
301.67467
301.47534
301.28123
301.09277
300.91028
300.73399
300.56404
300.40052
300.24347
300.09287
299.94868
299.81084
299.67925
299.55381
299.43439
299.32086
299.21306
299.11087
299.01411
298.92264
298.83629
298.75491
298.67834
298.60642
298.53901
298.47594
298.41708
298.36228
298.3114
298.26432
298.22091
298.18105
298.14462
298.11152
298.08165
298.05492
298.03123
298.01053
297.99275
297.97783
297.96565
297.95613
297.9494
297.94579
297.94541
297.94734
297.94983
297.95322
297.96382
297.98986
298.0199
296.49353
295.95973
298.82325
300.01981
301.49249
302.5477
303.456
304.16736
304.71006
305.0953
305.34481
305.47877
305.51743
305.47901
305.37954
305.23265
305.04966
304.83985
304.61076
304.36841
304.11761
303.86218
303.6051
303.34875
303.09494
302.84511
302.60034
302.36145
302.12907
301.90363
301.68545
301.47475
301.27162
301.07614
300.88829
300.70804
300.53529
300.36994
300.21187
300.06092
299.91693
299.77975
299.64918
299.52506
299.40718
299.29538
299.18946
299.08923
298.99452
298.90512
298.82087
298.74159
298.6671
298.59723
298.53183
298.47072
298.41376
298.3608
298.31169
298.26631
298.22452
298.18621
298.15125
298.11955
298.09099
298.06549
298.04298
298.02338
298.00659
297.9925
297.98106
297.97239
297.96672
297.96395
297.96313
297.96295
297.96433
297.97292
297.99433
298.01632
298.45793
299.6508
302.28058
303.5366
304.76409
305.64208
306.30168
306.73459
306.98993
307.09717
307.08852
306.99003
306.82376
306.60739
306.35496
306.07746
305.78341
305.47935
305.17032
304.86012
304.55166
304.24711
303.94811
303.65586
303.37122
303.09482
302.82708
302.56826
302.31852
302.07791
301.84642
301.62398
301.41048
301.20578
301.00972
300.82211
300.64274
300.47143
300.30794
300.15206
300.00357
299.86224
299.72786
299.60021
299.47905
299.36419
299.2554
299.15248
299.05522
298.96342
298.87689
298.79543
298.71886
298.647
298.57967
298.51671
298.45795
298.40324
298.35243
298.30538
298.26195
298.22202
298.18545
298.15215
298.12201
298.09492
298.07081
298.04959
298.03115
298.01539
298.00227
297.99189
297.98437
297.97946
297.97631
297.97409
297.974
297.98056
297.99722
298.01319
301.14039
304.04725
306.01193
307.16624
308.07237
308.58364
308.85779
308.92957
308.85746
308.67943
308.42704
308.12339
307.78587
307.42721
307.05681
306.68147
306.30615
305.93444
305.56889
305.21133
304.863
304.52477
304.19718
303.88055
303.57503
303.28067
302.99741
302.72511
302.4636
302.21267
301.97209
301.74159
301.52093
301.30982
301.10799
300.91517
300.73108
300.55544
300.38799
300.22846
300.07659
299.93213
299.79481
299.6644
299.54066
299.42335
299.31224
299.20711
299.10775
299.01393
298.92547
298.84215
298.76379
298.6902
298.6212
298.55661
298.49626
298.44001
298.38768
298.33914
298.29425
298.25286
298.21486
298.18012
298.14854
298.12002
298.09446
298.07176
298.05183
298.03456
298.01994
298.00801
297.99878
297.99197
297.98695
297.98332
297.98222
297.98669
297.99833
298.0089
304.8741
308.70701
309.93676
310.61761
310.96535
310.99763
310.84594
310.56482
310.20305
309.79103
309.3504
308.8956
308.43652
307.97982
307.52998
307.08997
306.66171
306.2464
305.84476
305.45712
305.08359
304.72411
304.37849
304.04648
303.72777
303.422
303.12882
302.84784
302.57869
302.32099
302.07437
301.83845
301.61289
301.39733
301.19142
300.99485
300.80728
300.62841
300.45794
300.29557
300.14102
299.99401
299.85427
299.72156
299.5956
299.47617
299.36302
299.25592
299.15466
299.05901
298.96876
298.88372
298.80368
298.72846
298.65787
298.59173
298.52988
298.47216
298.41839
298.36845
298.32216
298.27942
298.24007
298.204
298.1711
298.14125
298.11436
298.09032
298.06903
298.05042
298.03443
298.02107
298.01027
298.00179
297.99524
297.99048
297.98832
297.99046
297.99746
298.00436
310.4405
312.86091
313.29631
313.25781
313.03495
312.62484
312.12911
311.58592
311.02342
310.45753
309.89808
309.35092
308.81946
308.30558
307.81021
307.33366
306.87586
306.4365
306.01512
305.61118
305.22409
304.85324
304.49802
304.15784
303.83212
303.5203
303.22183
302.93621
302.66294
302.40154
302.15158
301.91261
301.68424
301.46608
301.25774
301.05887
300.86913
300.68819
300.51573
300.35144
300.19503
300.04621
299.90472
299.77029
299.64266
299.52158
299.40682
299.29814
299.19532
299.09814
299.00639
298.91987
298.83838
298.76173
298.68973
298.62222
298.55901
298.49995
298.44487
298.39363
298.34608
298.30209
298.26151
298.22422
298.19011
298.15907
298.13098
298.10574
298.08325
298.06344
298.04625
298.03164
298.0195
298.00963
298.00183
297.99609
297.99286
297.99291
297.9963
298.00065
314.04472
315.03833
315.18993
314.68735
314.06618
313.39207
312.70542
312.02679
311.36577
310.7276
310.11436
309.52679
308.9647
308.42743
307.91411
307.42373
306.95523
306.50759
306.07979
305.67088
305.27994
304.90611
304.5486
304.20666
303.87958
303.5667
303.26742
302.98115
302.70736
302.44553
302.19519
301.95588
301.72717
301.50867
301.29997
301.10073
300.91057
300.72918
300.55623
300.39141
300.23442
300.08499
299.94284
299.8077
299.67932
299.55746
299.44187
299.33233
299.22862
299.13051
299.03781
298.9503
298.86781
298.79013
298.71708
298.6485
298.58421
298.52405
298.46786
298.4155
298.36682
298.32169
298.27998
298.24156
298.20631
298.17412
298.14489
298.1185
298.09486
298.07391
298.0556
298.03986
298.02657
298.01558
298.00674
298.00008
297.99583
297.9943
297.99548
297.99851
310.53661
308.81739
305.56775
302.75624
301.76605
301.78457
301.44702
301.227
301.05154
300.90076
300.77064
300.64421
300.5312
300.42732
300.32707
300.22694
300.12822
300.03072
299.93413
299.83829
299.74309
299.64847
299.55441
299.46091
299.36799
299.27568
299.18404
299.09313
299.00301
298.91375
298.82543
298.73813
298.65195
298.56697
298.48329
298.401
298.32022
298.24105
298.16359
298.08796
298.01429
297.94268
297.87327
297.80619
297.74156
297.67952
297.62021
297.56375
297.51029
297.45996
297.4129
297.36923
297.32908
297.29257
297.2598
297.23087
297.20587
297.18487
297.1679
297.15504
297.14636
297.14194
297.14183
297.14608
297.15478
297.16792
297.1857
297.20776
297.23505
297.26576
297.30451
297.34305
297.39782
297.43938
297.51822
297.54991
297.66753
297.68255
297.83083
297.86747
306.72091
304.58835
300.54429
299.32539
299.31436
299.43065
299.59069
299.64325
299.68246
299.71577
299.73882
299.73865
299.7227
299.69391
299.65746
299.61503
299.56725
299.51457
299.45764
299.39707
299.33334
299.26691
299.19816
299.12745
299.05512
298.98145
298.90672
298.8312
298.75512
298.67872
298.60221
298.52579
298.44966
298.37401
298.29902
298.22487
298.15173
298.07975
298.00912
297.93998
297.87251
297.80685
297.74316
297.68162
297.62236
297.56555
297.51135
297.45989
297.41134
297.36584
297.32352
297.28453
297.24899
297.21701
297.18871
297.16418
297.1435
297.12673
297.1139
297.10507
297.10031
297.0997
297.10326
297.11104
297.12312
297.13948
297.16028
297.18523
297.21512
297.24849
297.28926
297.33044
297.38639
297.43068
297.50957
297.54448
297.66166
297.67759
297.83126
297.85925
307.25813
303.14984
300.07563
298.90743
298.9366
299.05255
299.1776
299.19971
299.23352
299.23325
299.23445
299.22403
299.2124
299.19461
299.17264
299.14552
299.11401
299.0783
299.03871
298.99555
298.9491
298.89962
298.8474
298.79271
298.73582
298.67698
298.61647
298.55453
298.4914
298.42733
298.36254
298.29727
298.23172
298.16613
298.10069
298.03562
297.9711
297.90735
297.84456
297.7829
297.72259
297.6638
297.60671
297.55152
297.49841
297.44754
297.39909
297.35324
297.31013
297.26994
297.23281
297.19888
297.16829
297.14115
297.11758
297.09767
297.08148
297.06909
297.06052
297.05581
297.05504
297.05827
297.06553
297.07683
297.09226
297.1118
297.13558
297.16335
297.19582
297.23168
297.27457
297.31809
297.37555
297.42191
297.50159
297.53879
297.6566
297.67298
297.83034
297.85301
306.17737
301.02089
299.06727
298.18155
298.42923
298.48718
298.61293
298.62328
298.67181
298.685
298.70679
298.71116
298.71309
298.70673
298.69642
298.6813
298.66225
298.63926
298.61268
298.58276
298.54974
298.51384
298.47526
298.43422
298.39091
298.34553
298.29828
298.24936
298.19898
298.14732
298.0946
298.04103
297.9868
297.93213
297.87722
297.82228
297.76752
297.71314
297.65936
297.60638
297.55441
297.50364
297.4543
297.40658
297.36068
297.31678
297.27509
297.23578
297.19904
297.16502
297.13389
297.1058
297.08089
297.05927
297.04107
297.02637
297.01524
297.00774
297.0039
297.00375
297.00737
297.0148
297.02607
297.0412
297.06024
297.08318
297.11014
297.1409
297.1761
297.21458
297.25973
297.3056
297.36472
297.41311
297.49376
297.53308
297.65159
297.66843
297.82918
297.84707
305.15387
299.91704
298.49619
297.77136
298.12571
298.10997
298.24284
298.22518
298.27316
298.27015
298.28527
298.28185
298.28161
298.27478
298.26647
298.25477
298.24062
298.22382
298.20457
298.18296
298.15906
298.13295
298.10472
298.07444
298.04222
298.00816
297.97237
297.93498
297.89612
297.85594
297.81459
297.77223
297.72903
297.68517
297.64083
297.5962
297.55147
297.50684
297.46253
297.41872
297.37565
297.33351
297.29251
297.25288
297.21482
297.17853
297.1442
297.11204
297.08223
297.05494
297.03035
297.0086
296.98985
296.9742
296.96178
296.95268
296.94697
296.94469
296.94586
296.95054
296.95877
296.97061
296.98607
297.00517
297.02795
297.0544
297.08463
297.11843
297.15643
297.19755
297.24502
297.29319
297.35409
297.40435
297.48622
297.52737
297.64679
297.66404
297.82765
297.84176
304.64605
298.84447
297.86127
297.22223
297.67628
297.59662
297.75761
297.72634
297.79005
297.78775
297.8132
297.81545
297.8231
297.82318
297.82238
297.81831
297.81216
297.80364
297.79299
297.78027
297.76556
297.74893
297.73044
297.71016
297.68815
297.66449
297.63926
297.61255
297.58445
297.55507
297.52451
297.49291
297.46039
297.4271
297.39321
297.35886
297.32424
297.28953
297.25492
297.22061
297.1868
297.1537
297.12152
297.09047
297.06076
297.0326
297.00618
296.98171
296.95937
296.93935
296.9218
296.90689
296.89477
296.88554
296.87934
296.87624
296.87631
296.8796
296.88612
296.8959
296.90902
296.9255
296.94535
296.9686
296.99527
297.02536
297.05896
297.0959
297.13676
297.18057
297.2304
297.28087
297.34362
297.39577
297.47889
297.52173
297.6421
297.65983
297.82589
297.83692
304.1728
297.70153
297.28387
296.6855
297.22192
297.09421
297.2879
297.24487
297.32508
297.32247
297.35636
297.36275
297.37709
297.38329
297.3893
297.39208
297.39302
297.39185
297.38881
297.38396
297.37739
297.36917
297.35935
297.34799
297.33515
297.32087
297.30521
297.28823
297.26999
297.25057
297.23005
297.20853
297.18611
297.16291
297.13906
297.1147
297.08998
297.06506
297.04012
297.01534
296.9909
296.96702
296.94388
296.92169
296.90064
296.88095
296.8628
296.8464
296.83192
296.81955
296.80944
296.80176
296.79664
296.79421
296.79456
296.79779
296.80396
296.8131
296.82521
296.84034
296.85854
296.87984