/*--------------------------------*- C++ -*----------------------------------*\
| =========                 |                                                 |
| \\      /  F ield         | OpenFOAM: The Open Source CFD Toolbox           |
|  \\    /   O peration     | Version:  2512                                  |
|   \\  /    A nd           | Website:  www.openfoam.com                      |
|    \\/     M anipulation  |                                                 |
\*---------------------------------------------------------------------------*/
FoamFile
{
    version     2.0;
    format      ascii;
    arch        "LSB;label=32;scalar=64";
    class       volVectorField;
    location    "0.15";
    object      U;
}
// * * * * * * * * * * * * * * * * * * * * * * * * * * * * * * * * * * * * * //

dimensions      [0 1 -1 0 0 0 0];

internalField   nonuniform List<vector> 
16000
(
(214.69828 -3.1198707e-17 -8.3330751)
(251.8135 0 5.3474249)
(238.186 0 -7.5354322)
(245.92811 4.9565025e-17 3.7561014)
(241.33499 -4.9015733e-17 -5.927329)
(243.58965 0 1.7321968)
(241.83866 0 -4.3101618)
(242.37703 8.3864814e-17 -0.04158489)
(241.56849 -7.9705174e-17 -3.1529815)
(241.47013 0 -1.2744453)
(240.97694 7.2022519e-17 -2.5649576)
(240.64776 -2.0519127e-16 -1.9881722)
(240.22014 1.2988029e-16 -2.4254921)
(239.80568 -1.2354816e-16 -2.3631855)
(239.36159 1.1722587e-16 -2.5242068)
(238.90234 -3.4774811e-18 -2.5961548)
(238.4233 -3.3035129e-18 -2.6996347)
(237.92553 -9.7480468e-17 -2.792377)
(237.40858 1.9098662e-16 -2.8868999)
(236.8724 -9.0616204e-17 -2.9792222)
(236.3169 1.7236519e-16 -3.0697283)
(235.74207 -1.633878e-16 -3.1577166)
(235.14795 0 -3.2426833)
(234.53468 1.5208862e-16 -3.3240404)
(233.90249 -4.1158413e-18 -3.4011899)
(233.2517 -2.6544051e-16 -3.4735008)
(232.58273 1.258089e-16 -3.5403342)
(231.89615 0 -3.6010367)
(231.19263 0 -3.6549566)
(230.47297 2.1848717e-16 -3.7014493)
(229.73814 -2.035696e-16 -3.73989)
(228.9892 0 -3.7696826)
(228.22738 0 -3.7902707)
(227.45403 0 -3.8011524)
(226.67064 5.1359135e-18 -3.8018897)
(225.87881 1.558599e-16 -3.7921216)
(225.08026 -1.4267497e-16 -3.7715755)
(224.2768 -1.3974036e-16 -3.7400759)
(223.47033 1.2373003e-16 -3.6975545)
(222.6628 0 -3.6440579)
(221.8562 -1.1842174e-16 -3.5797497)
(221.05254 1.1177604e-16 -3.5049148)
(220.25383 -2.1183849e-16 -3.4199576)
(219.46203 1.9986306e-16 -3.3253983)
(218.67906 -1.9519798e-16 -3.221867)
(217.90673 3.5737636e-16 -3.1100927)
(217.14679 5.6004137e-18 -2.9908924)
(216.40082 2.9805223e-19 -2.8651564)
(215.67031 -1.5042603e-16 -2.7338311)
(214.95656 1.4227136e-16 -2.5979026)
(214.26073 -1.2566959e-16 -2.4583779)
(213.58379 0 -2.3162661)
(212.92655 7.4693269e-18 -2.172562)
(212.28963 0 -2.0282286)
(211.67348 6.6468765e-18 -1.8841817)
(211.07835 2.0697039e-16 -1.7412786)
(210.50428 -3.7829456e-16 -1.6003049)
(209.95115 1.0923178e-17 -1.4619648)
(209.41866 1.6810554e-16 -1.3268701)
(208.90628 -1.4879954e-16 -1.1955469)
(208.41329 1.4016172e-16 -1.0684107)
(207.93888 -8.8198541e-18 -0.94581184)
(207.48214 0 -0.82800122)
(207.04193 0 -0.71513109)
(206.61686 -1.1115168e-16 -0.60728525)
(206.20527 1.1183203e-16 -0.50448461)
(205.80525 -9.9096188e-17 -0.40671042)
(205.41469 1.9343424e-16 -0.31392231)
(205.0315 -1.8877958e-16 -0.22607027)
(204.65354 8.3690725e-17 -0.14309169)
(204.27852 5.2849862e-18 -0.064910044)
(203.90378 0 0.0085046783)
(203.52655 4.7517999e-18 0.077185066)
(203.14493 -4.5137107e-18 0.14152981)
(202.75829 0 0.20199555)
(202.36851 -3.3756245e-17 0.25489877)
(201.93959 6.24777e-17 0.2989031)
(201.64466 -3.1748173e-17 0.41206893)
(200.92414 0 0.1989029)
(200.99932 0 0.91074855)
(215.98594 0 -11.142268)
(253.42682 -3.709513e-18 3.3045832)
(239.15775 -1.1966517e-16 -10.456797)
(247.36514 1.1012255e-16 1.6747709)
(242.42084 0 -8.784343)
(244.90593 1.0141766e-16 -0.42295292)
(242.95204 -1.8744463e-16 -7.0519206)
(243.57808 -1.0207735e-19 -2.3203826)
(242.67902 8.4472774e-17 -5.7411822)
(242.58132 0 -3.6713629)
(242.04739 -1.5259241e-16 -5.0398461)
(241.6892 1.4926348e-16 -4.4308505)
(241.2295 1.4197136e-16 -4.8551404)
(240.78053 -2.6135405e-16 -4.793858)
(240.30177 1.2014852e-16 -4.9352608)
(239.80595 1.1046116e-17 -5.0002684)
(239.28934 1.1550857e-16 -5.0885982)
(238.75268 -1.0287416e-16 -5.168031)
(238.19568 0 -5.2469174)
(237.61833 0 -5.3225527)
(237.02063 5.676958e-18 -5.3948151)
(236.40265 -1.780878e-16 -5.462993)
(235.76456 3.3768764e-16 -5.5264483)
(235.10662 -3.155437e-16 -5.5844933)
(234.42921 1.4262217e-16 -5.6364246)
(233.73281 0 -5.6815233)
(233.01802 1.2439242e-16 -5.7190602)
(232.28561 -1.3338532e-16 -5.7483107)
(231.53645 0 -5.7685617)
(230.77158 3.5252092e-18 -5.7791229)
(229.99218 -1.3370523e-17 -5.7793385)
(229.19956 0 -5.7686027)
(228.39521 0 -5.7463676)
(227.58072 -1.7060663e-16 -5.7121641)
(226.75783 3.387655e-16 -5.6656105)
(225.92839 -1.6267144e-16 -5.606427)
(225.09436 -1.5907732e-16 -5.5344495)
(224.25775 1.4559588e-16 -5.4496362)
(223.42066 -1.1214254e-16 -5.3520788)
(222.58521 -2.8693061e-19 -5.2420071)
(221.75352 -2.6839463e-19 -5.1197915)
(220.9277 2.3276717e-16 -4.9859421)
(220.10981 -1.0982267e-16 -4.8411047)
(219.30184 0 -4.6860526)
(218.50567 2.0235945e-16 -4.5216764)
(217.72306 1.1937591e-17 -4.3489694)
(216.95564 -5.1163802e-18 -4.1690103)
(216.20486 -1.6452739e-16 -3.9829452)
(215.47203 0 -3.7919661)
(214.75826 -1.4655008e-16 -3.5972905)
(214.06448 -8.8589514e-18 -3.4001405)
(213.39142 2.6010713e-16 -3.2017206)
(212.73966 -1.3008654e-16 -3.0032)
(212.10957 0 -2.8056941)
(211.50135 -2.0383004e-17 -2.6102488)
(210.915 -2.112116e-16 -2.4178288)
(210.35038 3.6128215e-16 -2.2293054)
(209.80713 -2.1528129e-16 -2.045448)
(209.28477 0 -1.8669152)
(208.78261 -1.7080542e-16 -1.6942615)
(208.29979 1.7949209e-16 -1.5279146)
(207.83534 2.6687536e-17 -1.3682116)
(207.38824 0 -1.2153928)
(206.95728 -1.4189965e-16 -1.0695793)
(206.54106 7.3214719e-18 -0.93081496)
(206.13789 1.1171734e-16 -0.79907345)
(205.74583 -1.9738388e-17 -0.67428096)
(205.36277 9.3009087e-17 -0.5563373)
(204.98655 -1.0513322e-16 -0.44512835)
(204.61502 5.5091156e-18 -0.34052645)
(204.24587 -5.1982472e-18 -0.24240375)
(203.87639 0 -0.15069351)
(203.50374 -4.6382517e-18 -0.065253931)
(203.12597 4.3871338e-18 0.014518719)
(202.74194 8.3089916e-18 0.088201947)
(202.34813 9.8455045e-19 0.15194891)
(201.94898 0 0.22041116)
(201.57482 3.0230929e-17 0.30242222)
(201.00357 -5.757e-17 0.16795163)
(200.90385 2.5861073e-17 0.79351999)
(217.13776 0 -14.024372)
(254.88659 -1.2201365e-16 1.0635937)
(240.08195 2.4972735e-16 -13.463406)
(248.59737 -2.2262249e-16 -0.57633273)
(243.39864 1.1015748e-16 -11.717859)
(246.01879 -3.2587497e-18 -2.7706013)
(243.93774 9.9272579e-17 -9.8432106)
(244.58869 -9.3987145e-17 -4.797122)
(243.63266 -5.5814455e-18 -8.395995)
(243.51145 -5.2990974e-18 -6.2349419)
(242.94182 -1.0067658e-17 -7.6153691)
(242.54732 1.3889639e-16 -7.0117746)
(242.05182 -1.4079752e-16 -7.4054952)
(241.56402 1.3818803e-16 -7.3513211)
(241.04583 -1.1871358e-16 -7.4717344)
(240.50893 -1.5559466e-17 -7.5289389)
(239.94999 0 -7.6019158)
(239.36973 -1.1936816e-20 -7.6667321)
(238.76797 -2.2631478e-16 -7.7287542)
(238.14478 -3.6748762e-19 -7.7859532)
(237.50028 1.7346475e-16 -7.8378958)
(236.83466 1.7039334e-17 -7.8837897)
(236.14825 -2.1552275e-17 -7.9228799)
(235.44147 0 -7.9543763)
(234.71485 6.7048741e-21 -7.9774798)
(233.9691 -1.6544625e-16 -7.9913844)
(233.20503 1.478058e-16 -7.9952886)
(232.42363 8.2491985e-18 -7.9884033)
(231.62605 0 -7.9699707)
(230.81358 -7.4005812e-18 -7.9392711)
(229.98769 -2.1779777e-21 -7.8956436)
(229.15 -1.992168e-16 -7.8384991)
(228.30228 2.0063449e-16 -7.7673359)
(227.44643 1.189e-17 -7.68176)
(226.58448 -1.7998072e-16 -7.5814942)
(225.71856 1.485363e-16 -7.4663969)
(224.85088 -1.8099421e-16 -7.3364714)
(223.98371 1.5170357e-16 -7.1918762)
(223.11932 -1.4364001e-16 -7.032929)
(222.25999 1.3537405e-16 -6.860112)
(221.40798 1.6007226e-17 -6.6740691)
(220.56544 0 -6.4755986)
(219.73447 1.9967154e-16 -6.2656462)
(218.917 -2.4168311e-16 -6.0452894)
(218.11484 0 -5.8157214)
(217.32961 1.7937797e-16 -5.578232)
(216.56277 -1.5740786e-16 -5.3341831)
(215.81556 1.6983778e-16 -5.084987)
(215.08903 -1.7964348e-16 -4.8320808)
(214.38401 0 -4.5769027)
(213.70115 1.7714531e-16 -4.320869)
(213.04087 -1.331313e-16 -4.0653505)
(212.40344 0 -3.8116546)
(211.78893 0 -3.5610077)
(211.19724 1.2474205e-16 -3.3145393)
(210.6281 -2.0832814e-16 -3.0732736)
(210.08109 1.2229345e-16 -2.8381183)
(209.55564 1.840485e-16 -2.6098592)
(209.05104 1.9857395e-19 -2.389154)
(208.5664 1.7669122e-19 -2.1765387)
(208.10071 -3.2396203e-16 -1.9724159)
(207.65286 8.9406889e-17 -1.7770726)
(207.2217 0 -1.5907048)
(206.80595 1.4210177e-16 -1.4133784)
(206.40414 -1.6300541e-16 -1.2450741)
(206.0146 1.1141517e-16 -1.0857001)
(205.63538 1.3150736e-17 -0.93511348)
(205.26437 -8.5972305e-17 -0.79314459)
(204.89941 1.1545165e-17 -0.65961002)
(204.53833 2.1711906e-17 -0.534318)
(204.17884 -1.0210404e-16 -0.41708953)
(203.81827 9.6028334e-17 -0.30779248)
(203.45378 -7.2354001e-17 -0.20616482)
(203.08319 1.3629135e-16 -0.11171017)
(202.70466 -5.6201032e-17 -0.025440559)
(202.31662 -6.0637826e-17 0.051560024)
(201.92784 5.0099644e-17 0.13387962)
(201.52596 0 0.19941047)
(201.03489 3.2060852e-18 0.13778023)
(200.82925 -1.2159802e-17 0.67107186)
(218.12486 0 -16.975384)
(256.19206 0 -1.3091336)
(240.81591 0 -16.601416)
(249.63005 1.0638828e-16 -2.9349578)
(244.1856 -1.2376799e-16 -14.782398)
(246.95943 -2.2022183e-16 -5.2372323)
(244.73694 2.0962488e-16 -12.753803)
(245.41577 -1.2412001e-17 -7.401766)
(244.39535 5.9119187e-18 -11.162046)
(244.24691 -1.7383968e-16 -8.9304408)
(243.63726 1.7020602e-16 -10.302606)
(243.20116 1.0115224e-17 -9.7183584)
(242.66524 -1.5361083e-16 -10.073335)
(242.13355 1.364588e-16 -10.027729)
(241.57113 -1.3194436e-20 -10.125676)
(240.9883 -8.1849249e-18 -10.172947)
(240.38233 0 -10.22879)
(239.7539 -7.3880035e-18 -10.27639)
(239.10292 -2.1031179e-16 -10.318779)
(238.4296 2.1235706e-16 -10.354387)
(237.73416 1.2604962e-17 -10.382558)
(237.01697 -1.1950618e-17 -10.402413)
(236.27849 2.153584e-16 -10.413096)
(235.51935 -1.7154271e-16 -10.413719)
(234.74031 1.0172685e-17 -10.403386)
(233.9423 1.9289592e-16 -10.381211)
(233.12642 -1.2759895e-16 -10.346316)
(232.29395 0 -10.297862)
(231.44636 1.4744123e-16 -10.235056)
(230.58528 -1.2375731e-16 -10.157174)
(229.71251 2.4941899e-16 -10.063576)
(228.83002 -1.3319754e-17 -9.9537314)
(227.93995 -2.0950452e-16 -9.8272295)
(227.04453 1.737694e-16 -9.6838044)
(226.14611 -1.8719067e-16 -9.5233451)
(225.24712 -3.1418105e-20 -9.3459132)
(224.35003 2.092656e-16 -9.1517498)
(223.45732 -3.1581515e-16 -8.9412817)
(222.57146 9.2948733e-17 -8.7151239)
(221.69483 3.5192639e-17 -8.4740756)
(220.82973 -4.9762689e-17 -8.2191147)
(219.97834 0 -7.9513818)
(219.14267 -8.8547436e-17 -7.672166)
(218.32454 1.3867949e-16 -7.3828822)
(217.52559 -2.0939746e-16 -7.0850485)
(216.7472 1.9674958e-16 -6.7802614)
(215.99057 -2.0868504e-16 -6.4701649)
(215.25662 3.9240167e-16 -6.1564248)
(214.54607 -3.0751701e-16 -5.8407012)
(213.8594 3.0837241e-16 -5.5246213)
(213.1969 -1.4473925e-16 -5.2097562)
(212.55862 1.3624793e-16 -4.8975994)
(211.94448 -9.57799e-17 -4.5895467)
(211.35419 3.0034677e-17 -4.2868846)
(210.78732 0 -3.9907746)
(210.24333 0 -3.7022484)
(209.7215 0 -3.4222009)
(209.22102 2.3249349e-17 -3.1513872)
(208.74095 0 -2.8904205)
(208.28025 -1.636389e-16 -2.6397798)
(207.83772 1.9156641e-16 -2.3998071)
(207.41214 -1.0782569e-16 -2.1707133)
(207.00224 -1.1701594e-19 -1.9526199)
(206.60666 2.5227018e-16 -1.7455198)
(206.22393 2.9629323e-17 -1.5493149)
(205.85236 -1.3836604e-16 -1.3638364)
(205.49003 5.1889506e-17 -1.1888647)
(205.13485 -1.4577567e-16 -1.0241548)
(204.78465 -4.5550716e-17 -0.86945173)
(204.43731 -6.4031648e-17 -0.72450107)
(204.09055 -6.0046539e-17 -0.58906622)
(203.74177 5.6270948e-17 -0.46293625)
(203.38815 0 -0.34579311)
(203.02714 0 -0.23735783)
(202.6568 -1.551078e-17 -0.13855783)
(202.2778 0 -0.048200787)
(201.89488 6.85179e-18 0.042852558)
(201.48604 5.1597237e-17 0.10459007)
(201.04322 -7.2874096e-17 0.10199248)
(200.77075 -1.491604e-20 0.54556328)
(218.92683 0 -20.123194)
(257.32111 -8.7793366e-18 -3.7548248)
(241.41069 2.6647359e-16 -19.871713)
(250.4705 -2.4845234e-16 -5.4178832)
(244.73528 2.540307e-16 -17.959375)
(247.69289 -2.3218839e-16 -7.8559966)
(245.33215 -2.2151713e-16 -15.76861)
(246.02845 2.0962363e-16 -10.16319)
(244.94533 0 -14.030116)
(244.76008 0 -11.774698)
(244.10851 1.7971514e-16 -13.102991)
(243.62437 -1.702572e-16 -12.55641)
(243.0436 -1.0114588e-17 -12.862786)
(242.46314 2.8770888e-17 -12.824928)
(241.85179 -9.10469e-18 -12.898265)
(241.21844 3.4533353e-17 -12.931858)
(240.56086 0 -12.967669)
(239.87967 0 -12.994402)
(239.17493 -2.3584667e-16 -13.013474)
(238.44695 2.0916213e-16 -13.023534)
(237.69611 0 -13.023732)
(236.92296 0 -13.013073)
(236.12821 -1.903122e-16 -12.990556)
(235.31273 3.6016278e-16 -12.955176)
(234.47759 -1.7034404e-16 -12.905924)
(233.62405 -2.0180165e-17 -12.841815)
(232.75356 -3.8222323e-17 -12.761909)
(231.8678 -1.4483023e-16 -12.665324)
(230.96863 1.1957841e-16 -12.551265)
(230.05809 0 -12.41904)
(229.13841 -3.0627593e-17 -12.268085)
(228.21199 0 -12.097989)
(227.28134 0 -11.908506)
(226.34908 2.0675264e-16 -11.699579)
(225.4179 -2.1914041e-16 -11.47135)
(224.49053 2.2987247e-17 -11.224172)
(223.56967 -2.1689901e-17 -10.958614)
(222.65799 -4.1008958e-17 -10.675461)
(221.75806 -8.8178539e-20 -10.375709)
(220.87232 8.3675247e-20 -10.06055)
(220.00303 -7.8889508e-20 -9.7313598)
(219.15227 0 -9.3896744)
(218.32187 -1.217369e-16 -9.037167)
(217.51343 1.1431682e-16 -8.675615)
(216.72827 0 -8.306871)
(215.96747 -5.0670791e-17 -7.9328345)
(215.23181 1.9044327e-16 -7.5554129)
(214.52184 -2.2325467e-16 -7.1764961)
(213.83783 -2.1004459e-16 -6.7979251)
(213.17985 1.5747992e-16 -6.4214667)
(212.54774 1.1106987e-16 -6.0487904)
(211.94116 -1.3864238e-16 -5.6814506)
(211.3596 -3.2504612e-17 -5.3208691)
(210.80242 -2.1354235e-16 -4.9683276)
(210.26884 1.1421176e-16 -4.6249568)
(209.758 -1.0712031e-16 -4.2917356)
(209.26893 1.0019611e-16 -3.9694892)
(208.80055 2.3476533e-16 -3.6588896)
(208.35174 -1.7558649e-16 -3.3604582)
(207.92128 0 -3.0745763)
(207.50784 -3.8425053e-17 -2.8014849)
(207.11007 -7.1927584e-17 -2.5412932)
(206.72661 1.3440239e-16 -2.2940199)
(206.35608 1.2574892e-16 -2.0595654)
(205.99696 -2.3499787e-16 -1.8377373)
(205.64759 8.2304155e-17 -1.6282789)
(205.3061 5.130686e-17 -1.4308855)
(204.97045 9.5920833e-17 -1.2452321)
(204.63851 1.3447614e-16 -1.0709913)
(204.30816 2.4531467e-20 -0.90784489)
(203.97722 0 -0.75548876)
(203.6432 0 -0.6136387)
(203.30324 -3.4225498e-17 -0.48198889)
(202.95454 9.60289e-17 -0.36040524)
(202.59548 -8.9813998e-17 -0.24934997)
(202.22773 -8.4075854e-17 -0.14677654)
(201.85159 5.2464792e-17 -0.048707706)
(201.44772 0 0.016258277)
(201.03575 4.6077078e-17 0.058748482)
(200.72177 2.6699745e-20 0.42153387)
(219.52923 0 -23.441012)
(258.25229 1.8305913e-20 -6.2771399)
(241.80966 9.0671579e-18 -23.239121)
(251.13899 2.8774543e-16 -8.0368761)
(245.12552 3.3305082e-19 -21.236549)
(248.1949 -5.052369e-16 -10.621553)
(245.68249 -3.2370589e-19 -18.875952)
(246.40259 4.5590363e-16 -13.084001)
(245.25288 -2.0982598e-16 -16.996633)
(245.02728 -1.2445812e-17 -14.765765)
(244.33292 1.1821053e-17 -16.014019)
(243.7958 -1.7950494e-16 -15.517708)
(243.16651 1.9124781e-16 -15.767539)
(242.53301 -1.8172015e-16 -15.733619)
(241.86824 3.0611785e-16 -15.780308)
(241.17956 -3.0842833e-16 -15.796067)
(240.46534 1.3746477e-16 -15.808767)
(239.72617 0 -15.810941)
(238.96231 0 -15.802845)
(238.17426 1.4642789e-17 -15.783126)
(237.36269 -2.7766465e-17 -15.7507)
(236.52842 0 -15.7044)
(235.67251 1.9938675e-16 -15.643061)
(234.79621 4.7379707e-19 -15.565542)
(233.90099 -3.5683362e-16 -15.470726)
(232.98856 1.6860458e-16 -15.357556)
(232.06085 1.9948627e-17 -15.22506)
(231.12 0 -15.072366)
(230.16838 -1.7871239e-16 -14.898737)
(229.20854 1.3475702e-16 -14.703591)
(228.24319 -2.2346997e-16 -14.486526)
(227.27518 2.1033479e-16 -14.247348)
(226.30746 -2.2764564e-16 -13.986078)
(225.34304 2.1427588e-16 -13.702981)
(224.38494 7.5961914e-17 -13.398562)
(223.43612 0 -13.073577)
(222.49949 0 -12.729032)
(221.57779 4.2335537e-17 -12.366166)
(220.6736 3.9874946e-17 -11.98644)
(219.7893 -3.7541864e-17 -11.591513)
(218.92697 3.5330483e-17 -11.183217)
(218.08845 6.6662025e-17 -10.76352)
(217.27526 -6.2608104e-17 -10.3345)
(216.48862 3.5300583e-16 -9.8982985)
(215.72943 -2.7613761e-16 -9.4570885)
(214.99828 5.1827613e-17 -9.013039)
(214.29549 -4.8770045e-17 -8.5682767)
(213.62107 0 -8.1248575)
(212.97481 2.1435569e-16 -7.6847372)
(212.35626 -1.6055908e-16 -7.2497499)
(211.7648 0 -6.8215868)
(211.19964 0 -6.4017859)
(210.65984 1.3211869e-16 -5.9917185)
(210.14439 -6.1754117e-17 -5.5925879)
(209.65218 0 -5.2054253)
(209.18205 -1.6225923e-16 -4.8310926)
(208.73276 1.0100423e-16 -4.4702876)
(208.30304 1.4177483e-16 -4.1235477)
(207.89158 -1.7635848e-16 -3.7912575)
(207.49702 1.6484561e-16 -3.4736623)
(207.11794 -1.5376831e-16 -3.1708698)
(206.75289 6.6697519e-20 -2.8828612)
(206.40046 0 -2.6095315)
(206.05922 6.2504993e-17 -2.350672)
(205.72769 -2.914288e-16 -2.1059856)
(205.40425 1.6299116e-16 -1.8751193)
(205.08709 0 -1.6576794)
(204.77424 -1.4172037e-16 -1.4532593)
(204.46362 8.8035568e-17 -1.2614602)
(204.15319 1.2316119e-16 -1.0818959)
(203.84085 3.4645931e-20 -0.91418988)
(203.52424 -7.1284426e-17 -0.75800727)
(203.20046 9.9696308e-17 -0.61308831)
(202.86663 -1.5487534e-16 -0.47929602)
(202.52151 8.6623256e-17 -0.35656078)
(202.16681 2.6910367e-17 -0.24313925)
(201.79997 5.0229591e-17 -0.13872539)
(201.4071 0 -0.065460711)
(201.01854 -4.3746127e-17 0.0063787653)
(200.67372 2.0380548e-17 0.30099833)
(219.92173 0 -26.925154)
(258.98043 9.7691359e-18 -8.9069117)
(242.0126 -3.0568951e-16 -26.732738)
(251.62505 2.491493e-16 -10.79654)
(245.3261 2.5641125e-16 -24.613587)
(248.45498 -4.9966628e-16 -13.540295)
(245.84141 2.3001151e-16 -22.065966)
(246.52929 2.327973e-16 -16.164807)
(245.33517 -2.2068897e-16 -20.046254)
(245.04144 3.9280782e-17 -17.889869)
(244.3021 0 -19.023654)
(243.70603 0 -18.587479)
(243.02268 -2.2343053e-17 -18.777735)
(242.32971 -1.6964077e-16 -18.744148)
(241.60462 1.4039183e-16 -18.763912)
(240.85344 1.9045918e-17 -18.758645)
(240.07519 -3.6103904e-17 -18.745484)
(239.27062 3.0802929e-16 -18.719355)
(238.44031 -2.2635605e-16 -18.679709)
(237.5851 2.4569158e-16 -18.625077)
(236.70603 -2.0303074e-16 -18.554167)
(235.80436 2.7528854e-17 -18.46565)
(234.8816 1.5639431e-16 -18.358224)
(233.93949 -1.9670177e-16 -18.23065)
(232.98006 0 -18.081752)
(232.00556 0 -17.910462)
(231.01852 0 -17.715848)
(230.02166 -1.9701521e-16 -17.497138)
(229.01793 1.8558385e-16 -17.253755)
(228.01046 -3.5167406e-17 -16.985339)
(227.00248 0 -16.691777)
(225.99734 -2.8190992e-16 -16.373225)
(224.99841 2.3561106e-16 -16.030111)
(224.00904 -5.5731663e-17 -15.663153)
(223.0325 1.5760704e-16 -15.273362)
(222.07194 -4.8974883e-17 -14.86202)
(221.1303 -1.8577043e-16 -14.430681)
(220.21029 2.1915731e-16 -13.981138)
(219.31435 -1.6452905e-16 -13.515395)
(218.44458 7.7612468e-17 -13.035636)
(217.60275 -7.2822813e-17 -12.544182)
(216.79026 1.3690252e-16 -12.043447)
(216.00814 -6.4146181e-17 -11.535898)
(215.25707 -2.4143767e-16 -11.024013)
(214.53738 5.0910945e-16 -10.510231)
(213.84906 -2.1204183e-16 -9.9969262)
(213.19182 -1.4942737e-16 -9.4863646)
(212.56509 9.2903565e-17 -8.9806801)
(211.96808 8.7395701e-17 -8.4818508)
(211.39982 -1.6349359e-16 -7.991682)
(210.85917 1.5275917e-16 -7.5117936)
(210.34489 0 -7.0436159)
(209.85565 1.337107e-16 -6.5883851)
(209.39007 -1.8729002e-16 -6.1471474)
(208.94673 5.8366571e-17 -5.7207634)
(208.5242 5.4395385e-17 -5.3099158)
(208.12106 0 -4.91512)
(207.73585 0 -4.5367325)
(207.36713 0 -4.1749616)
(207.01344 0 -3.8298844)
(206.6733 0 -3.5014492)
(206.34522 -7.1473952e-17 -3.1894893)
(206.02776 0 -2.8937622)
(205.71951 -5.4163154e-20 -2.6139378)
(205.419 2.3080767e-16 -2.3496088)
(205.1247 -2.1471546e-16 -2.100322)
(204.83488 -9.9953262e-17 -1.8655938)
(204.54769 -1.8585114e-16 -1.6449383)
(204.26111 2.5906525e-16 -1.4378861)
(203.97318 4.3551246e-20 -1.2439802)
(203.68192 7.4617989e-17 -1.0627741)
(203.38509 0 -0.89391103)
(203.07984 0 -0.73716752)
(202.76332 0 -0.59225301)
(202.43459 -1.1137954e-16 -0.45872094)
(202.09463 0 -0.3359022)
(201.73966 -9.6231867e-17 -0.22519672)
(201.36256 1.3415741e-16 -0.13908371)
(200.9936 8.3158105e-17 -0.048240297)
(200.62526 -1.9282274e-17 0.18542062)
(220.108 0 -30.58501)
(259.5117 0 -11.644956)
(242.02386 3.2161172e-16 -30.358126)
(251.93121 1.926057e-17 -13.713493)
(245.33742 -2.6915189e-16 -28.101224)
(248.5617 0 -16.633895)
(245.78359 1.6124526e-17 -25.331252)
(246.53182 -3.0557429e-17 -19.39635)
(245.1546 0 -23.160213)
(244.80088 1.9266272e-16 -21.134082)
(244.0093 -4.1714239e-16 -22.132021)
(243.34312 1.9752795e-16 -21.763974)
(242.59545 2.3446849e-17 -21.896576)
(241.83274 0 -21.858738)
(241.03712 2.1038225e-17 -21.850558)
(240.2135 -3.3937995e-16 -21.819737)
(239.36154 7.4816279e-17 -21.776015)
(238.48227 2.5011355e-16 -21.71574)
(237.57668 2.3753476e-16 -21.637867)
(236.64606 -2.5620959e-16 -21.540806)
(235.69193 0 -21.423088)
(234.71611 -2.8748654e-16 -21.283265)
(233.7207 2.4409038e-16 -21.119941)
(232.7081 -2.0574337e-16 -20.931837)
(231.68098 1.9391418e-16 -20.717797)
(230.64231 -1.8377592e-16 -20.476828)
(229.5953 3.4668364e-16 -20.208157)
(228.54335 -1.6360358e-16 -19.911233)
(227.49009 1.5472895e-16 -19.585788)
(226.43922 -2.9171479e-16 -19.23184)
(225.39455 1.372967e-16 -18.849734)
(224.35986 1.2966924e-16 -18.440143)
(223.33889 -2.4465652e-16 -18.00407)
(222.33524 5.6794121e-17 -17.542852)
(221.35229 -5.7631378e-19 -17.058146)
(220.39319 2.5453863e-16 -16.55189)
(219.46076 0 -16.026294)
(218.55745 1.9722821e-19 -15.483785)
(217.68531 0 -14.926963)
(216.84598 -7.9454536e-17 -14.358557)
(216.04066 -1.4932377e-16 -13.781374)
(215.27011 7.0115282e-17 -13.198239)
(214.5347 0 -12.611955)
(213.83438 -6.1787411e-17 -12.02525)
(213.16875 2.8919602e-16 -11.440737)
(212.53712 -3.2468337e-16 -10.860884)
(211.93849 -3.0422704e-16 -10.287982)
(211.37167 2.8405605e-16 -9.7241237)
(210.83526 -1.7727238e-16 -9.1711912)
(210.32774 0 -8.6308484)
(209.8475 0 -8.1045386)
(209.39287 7.2354985e-17 -7.5934868)
(208.96216 6.7525392e-17 -7.0987079)
(208.55368 1.2584544e-16 -6.6210151)
(208.16577 -5.8684604e-17 -6.1610326)
(207.7968 -1.0931762e-16 -5.7192089)
(207.44517 -2.0385841e-16 -5.2958312)
(207.10935 -9.5105437e-17 -4.8910378)
(206.7878 1.7657634e-16 -4.5048316)
(206.47904 0 -4.1370991)
(206.18154 -7.6484391e-17 -3.7876117)
(205.89384 -1.4217172e-16 -3.4560442)
(205.61452 1.3209431e-16 -3.1420097)
(205.34219 6.1270568e-17 -2.8450524)
(205.07546 5.6987252e-17 -2.5646539)
(204.81287 0 -2.3002625)
(204.55285 1.9647223e-16 -2.0513086)
(204.29363 1.8231349e-16 -1.8172315)
(204.03332 -2.5370057e-16 -1.5974932)
(203.77005 7.8462721e-17 -1.391565)
(203.50197 -7.2732783e-17 -1.1989434)
(203.22696 -4.5653761e-20 -1.019274)
(202.94228 2.4999117e-16 -0.85231875)
(202.64528 -2.3169402e-16 -0.69752581)
(202.33502 5.3640251e-17 -0.55437235)
(202.01133 1.4921092e-16 -0.42365179)
(201.67055 -4.6092573e-17 -0.30649988)
(201.31289 -4.269676e-17 -0.20478495)
(200.96194 0 -0.10088244)
(200.57463 3.6584595e-17 0.075588123)
(220.09515 3.8899056e-16 -34.429812)
(259.84746 5.4081529e-19 -14.498592)
(241.81426 -3.5846995e-16 -34.129039)
(252.04799 0 -16.790053)
(245.07744 0 -31.660361)
(248.29029 -2.6723357e-16 -19.896292)
(245.42548 2.7054979e-16 -28.653848)
(245.9915 6.4146804e-17 -22.792463)
(244.72196 -2.4354064e-16 -26.379666)
(244.27654 2.3035097e-16 -24.527116)
(243.42246 -2.4621337e-16 -25.366757)
(242.67354 2.0694651e-16 -25.062016)
(241.84964 -4.9096914e-17 -25.13593)
(241.00565 -4.6560884e-17 -25.084)
(240.1281 -1.7643238e-16 -25.042674)
(239.22102 1.6664458e-16 -24.978433)
(238.28477 -3.5588395e-16 -24.896122)
(237.32076 5.9822462e-16 -24.792779)
(236.33054 -2.8265354e-16 -24.666952)
(235.31598 -2.6819857e-16 -24.516893)
(234.27929 2.529115e-16 -24.34098)
(233.22299 -3.0123939e-17 -24.137673)
(232.14998 -2.2672509e-16 -23.905551)
(231.06344 2.1357376e-16 -23.643385)
(229.9669 2.5301184e-16 -23.35015)
(228.86412 -1.4265848e-16 -23.025084)
(227.75912 0 -22.667725)
(226.65608 2.5514347e-16 -22.27794)
(225.55928 -3.2046836e-16 -21.855965)
(224.47305 1.1275256e-16 -21.402411)
(223.40167 -2.8509704e-16 -20.918283)
(222.34927 2.0086543e-16 -20.404976)
(221.3198 -6.3296027e-17 -19.86426)
(220.31691 2.3785498e-16 -19.298255)
(219.34388 -2.2311306e-16 -18.709408)
(218.4036 -2.1028552e-16 -18.100431)
(217.49846 1.9709701e-16 -17.474259)
(216.63039 -4.6226445e-17 -16.833996)
(215.80077 0 -16.18284)
(215.01049 8.1811042e-17 -15.524034)
(214.25993 -7.6354729e-17 -14.860798)
(213.549 0 -14.196274)
(212.8772 1.3445813e-16 -13.533476)
(212.24362 -6.2901071e-17 -12.875249)
(211.64704 -1.7636328e-16 -12.224234)
(211.08599 5.5014185e-16 -11.58284)
(210.55877 -2.0598841e-16 -10.953233)
(210.06351 9.607274e-17 -10.337323)
(209.59826 -2.6939843e-16 -9.7367633)
(209.161 -1.8139078e-19 -9.1529558)
(208.74969 1.5620648e-16 -8.5870595)
(208.36232 -1.4572416e-16 -8.0400027)
(207.99691 -6.7818026e-17 -7.512499)
(207.65153 -6.3173001e-17 -7.0050642)
(207.32436 -1.1795934e-16 -6.5180334)
(207.01366 2.1906704e-16 -6.0515794)
(206.71775 0 -5.6057291)
(206.43504 9.4671883e-17 -5.1803793)
(206.164 -3.5228378e-16 -4.7753111)
(205.90315 2.4518625e-16 -4.39021)
(205.65102 7.5880712e-17 -4.0246643)
(205.40619 1.4096854e-16 -3.6781888)
(205.1673 1.3098123e-16 -3.3502547)
(204.93303 -1.211958e-16 -3.0402823)
(204.70208 -1.1231337e-16 -2.7476478)
(204.47311 -3.1243866e-16 -2.4717077)
(204.2447 -4.0908517e-20 -2.2118142)
(204.01521 -8.9294397e-17 -1.967339)
(203.78289 0 -1.7376782)
(203.54597 -2.2956213e-16 -1.5222362)
(203.30274 7.078786e-17 -1.3204731)
(203.05119 0 -1.1320469)
(202.78879 1.2111444e-16 -0.95662352)
(202.51323 0 -0.79335507)
(202.22322 1.0347364e-16 -0.64202043)
(201.91714 -1.433935e-16 -0.50488281)
(201.59285 1.3251117e-16 -0.38100265)
(201.25758 -8.1609725e-17 -0.26342498)
(200.9235 7.53701e-17 -0.15344524)
(200.52147 0 -0.027783347)
(219.86644 -4.0865912e-16 -38.466525)
(259.97229 3.6180819e-16 -17.484535)
(241.34891 -3.3256506e-16 -38.070827)
(251.89037 3.3012217e-16 -20.038125)
(244.53051 3.1670557e-16 -35.284084)
(247.80401 -1.7982556e-17 -23.350836)
(244.83831 -2.8351711e-16 -32.064739)
(245.33736 -2.6906868e-16 -26.380809)
(243.97497 2.8646669e-16 -29.717012)
(243.42461 0 -28.065043)
(242.49765 2.8583974e-17 -28.731311)
(241.65359 0 -28.478344)
(240.74088 -1.2857565e-16 -28.493264)
(239.80337 2.4277049e-16 -28.415835)
(238.8317 0 -28.333752)
(237.82941 0 -28.225958)
(236.79769 0 -28.094229)
(235.73857 3.9103519e-17 -27.935861)
(234.65435 0 -27.749088)
(233.54774 -2.4455755e-16 -27.532038)
(232.42183 3.29505e-16 -27.282998)
(231.2801 1.2468077e-16 -27.000441)
(230.12643 1.7679146e-16 -26.683051)
(228.96501 -2.7769654e-16 -26.329809)
(227.80033 -5.2327698e-17 -25.940022)
(226.63712 -2.4765674e-16 -25.513375)
(225.48025 1.8639383e-16 -25.049966)
(224.33467 -2.2015635e-16 -24.550341)
(223.20533 8.2364301e-17 -24.015495)
(222.09702 7.7874591e-17 -23.446893)
(221.01434 0 -22.846446)
(219.96157 2.7707066e-16 -22.216492)
(218.94258 -2.6023518e-16 -21.559758)
(217.96075 0 -20.879306)
(217.01892 -2.3006593e-16 -20.178479)
(216.11932 2.1549432e-16 -19.460826)
(215.2636 -1.0155988e-16 -18.730024)
(214.45275 1.9013885e-16 -17.989814)
(213.68718 -2.6717091e-16 -17.243915)
(212.96674 1.2741101e-19 -16.495957)
(212.29076 -1.5610723e-16 -15.749426)
(211.65809 -7.3056987e-17 -15.007601)
(211.06722 -1.3712194e-16 -14.273522)
(210.51633 2.5563413e-16 -13.549955)
(210.00332 -1.1929249e-16 -12.839376)
(209.52593 0 -12.143955)
(209.08179 -3.820061e-19 -11.465564)
(208.66846 9.7053093e-17 -10.805778)
(208.28349 0 -10.16589)
(207.92447 8.4419879e-17 -9.5469255)
(207.58902 7.893507e-17 -8.9496649)
(207.2749 -7.3295353e-17 -8.3746637)
(206.97994 2.7288604e-16 -7.8222743)
(206.7021 -2.5369123e-16 -7.2926692)
(206.43949 -1.1798971e-16 -6.7858611)
(206.19031 -1.0961386e-16 -6.3017242)
(205.95291 1.0178284e-16 -5.8400112)
(205.72574 1.8881054e-16 -5.4003701)
(205.50731 -3.5024338e-16 -4.982359)
(205.29623 4.0591664e-16 -4.585465)
(205.09111 -1.5040897e-16 -4.2090984)
(204.89063 1.3941954e-16 -3.8526222)
(204.69353 -1.2906292e-16 -3.5153767)
(204.4986 2.3903158e-16 -3.1966671)
(204.30465 -3.3182976e-16 -2.8957755)
(204.11049 2.0456033e-16 -2.6119779)
(203.91483 -7.9101953e-20 -2.3445601)
(203.71622 8.7440332e-17 -2.0928348)
(203.51304 0 -1.8561359)
(203.30368 0 -1.6338119)
(203.08649 0 -1.4253138)
(202.85961 -1.2708597e-16 -1.2302978)
(202.62086 1.3489614e-20 -1.0482428)
(202.36826 0 -0.87806278)
(202.09988 0 -0.72020063)
(201.8126 9.1917049e-17 -0.5780093)
(201.507 -1.6938299e-16 -0.44698569)
(201.19627 0 -0.31386672)
(200.87806 0 -0.20306581)
(200.46586 -1.3195455e-16 -0.12386304)
(219.38711 2.7586382e-17 -42.703159)
(259.84605 -7.8339439e-16 -20.620732)
(240.59933 3.4792814e-16 -42.15189)
(251.19926 -2.1700329e-17 -23.469791)
(243.674 3.7328498e-16 -39.029295)
(246.97561 -3.5172743e-16 -27.029264)
(243.92049 0 -35.5882)
(244.29123 -3.1696715e-16 -30.157287)
(242.87806 2.3305635e-16 -33.167388)
(242.20256 2.2135632e-16 -31.741732)
(241.1892 -2.3894806e-16 -32.228773)
(240.2357 0 -32.00902)
(239.21954 1.9594951e-19 -31.962896)
(238.17467 0 -31.846241)
(237.09537 3.84929e-16 -31.712141)
(235.98522 -7.2716812e-16 -31.547231)
(234.84638 3.4330037e-16 -31.351419)
(233.6818 -4.0551844e-17 -31.122064)
(232.49483 -3.8538728e-17 -30.857189)
(231.28929 3.6633297e-17 -30.554881)
(230.06946 -6.8392069e-17 -30.213493)
(228.84003 -3.2401066e-16 -29.831679)
(227.60607 3.0494698e-16 -29.408465)
(226.37297 5.7484766e-17 -28.943316)
(225.1463 -2.7245216e-16 -28.436158)
(223.9318 -7.0173411e-19 -27.887455)
(222.7352 2.8936357e-16 -27.298195)
(221.56211 -1.8162202e-16 -26.669925)
(220.41794 -6.2322724e-19 -26.004729)
(219.30772 0 -25.305211)
(218.23604 0 -24.574449)
(217.2069 -7.1477331e-17 -23.815935)