/*--------------------------------*- C++ -*----------------------------------*\
| =========                 |                                                 |
| \\      /  F ield         | OpenFOAM: The Open Source CFD Toolbox           |
|  \\    /   O peration     | Version:  2512                                  |
|   \\  /    A nd           | Website:  www.openfoam.com                      |
|    \\/     M anipulation  |                                                 |
\*---------------------------------------------------------------------------*/
FoamFile
{
    version     2.0;
    format      ascii;
    arch        "LSB;label=32;scalar=64";
    class       volScalarField;
    location    "0.142";
    object      alphat;
}
// * * * * * * * * * * * * * * * * * * * * * * * * * * * * * * * * * * * * * //

dimensions      [1 -1 -1 0 0 0 0];

internalField   nonuniform List<scalar> 
16000
(
5.9755427e-07
1.2056447e-05
2.0554147e-05
2.5353851e-05
2.0091565e-05
2.7318361e-05
1.938463e-05
2.6701708e-05
2.0741578e-05
2.887091e-05
2.4134901e-05
2.8517409e-05
2.5889982e-05
2.6602065e-05
2.5667361e-05
2.5516644e-05
2.5240582e-05
2.5165875e-05
2.5178943e-05
2.5302402e-05
2.5527995e-05
2.5854473e-05
2.6279134e-05
2.6802098e-05
2.7425657e-05
2.8156414e-05
2.9003228e-05
2.9980235e-05
3.1104733e-05
3.239541e-05
3.3872789e-05
3.556414e-05
3.7504675e-05
3.9737815e-05
4.2317053e-05
4.5306293e-05
4.8781767e-05
5.2834482e-05
5.7577172e-05
6.3149712e-05
6.9716534e-05
7.747148e-05
8.665909e-05
9.7579282e-05
0.00011058954
0.00012611903
0.00014470033
0.00016698299
0.00019375864
0.00022599287
0.00026486844
0.00031183772
0.00036867868
0.0004375732
0.00052119993
0.00062286179
0.00074664648
0.00089763558
0.001082183
0.0011794097
0.0011802288
0.0011809512
0.0011815722
0.0011820554
0.0011823975
0.0011825871
0.0011826151
0.0011824735
0.0011821517
0.0011816317
0.0011808767
0.0011798083
0.0011783777
0.0011769841
0.0011757676
0.0011746236
0.0011735243
0.0011729968
0.0011723401
0.0011726294
5.306184e-07
1.1395372e-05
2.1061544e-05
2.2707456e-05
1.8099184e-05
2.4471282e-05
1.7190587e-05
2.3344396e-05
1.8311877e-05
2.5442661e-05
2.1831638e-05
2.5670797e-05
2.3652687e-05
2.4075312e-05
2.3348092e-05
2.3142836e-05
2.2915678e-05
2.2838385e-05
2.2855172e-05
2.2969902e-05
2.3180117e-05
2.3484166e-05
2.387998e-05
2.4367798e-05
2.4949372e-05
2.5630872e-05
2.6419998e-05
2.7329488e-05
2.8375704e-05
2.9576868e-05
3.0952102e-05
3.2526344e-05
3.4332212e-05
3.6409935e-05
3.8809586e-05
4.159128e-05
4.4827201e-05
4.8602916e-05
5.30235e-05
5.8221413e-05
6.4354739e-05
7.1606117e-05
8.020599e-05
9.044044e-05
0.00010265299
0.00011725188
0.00013474542
0.0001557558
0.00018104309
0.00021153508
0.00024836877
0.00029294415
0.00034697753
0.00041257925
0.00049234269
0.00058946862
0.00070792253
0.00085262927
0.0010297304
0.0011789376
0.0011797538
0.0011804289
0.0011810119
0.0011814601
0.0011817702
0.0011819306
0.0011819317
0.001181765
0.0011814201
0.0011808794
0.0011801128
0.0011790536
0.0011776461
0.0011763102
0.001175147
0.001174044
0.0011730181
0.0011723354
0.0011720241
0.0011725421
4.7134651e-07
1.0892178e-05
1.9910907e-05
2.0800424e-05
1.6209548e-05
2.1543828e-05
1.5293385e-05
2.026224e-05
1.6450729e-05
2.2284132e-05
1.988623e-05
2.2823457e-05
2.1403935e-05
2.1534688e-05
2.0977997e-05
2.075127e-05
2.0563067e-05
2.0493998e-05
2.0516323e-05
2.0626789e-05
2.0824557e-05
2.1108394e-05
2.1476552e-05
2.1929596e-05
2.2468909e-05
2.3100455e-05
2.3831164e-05
2.4672609e-05
2.5640062e-05
2.67513e-05
2.8024511e-05
2.9482802e-05
3.115665e-05
3.3083546e-05
3.5310541e-05
3.7894274e-05
4.0903359e-05
4.4419117e-05
4.8540213e-05
5.3391743e-05
5.9126601e-05
6.5918843e-05
7.3986883e-05
8.3603946e-05
9.5102475e-05
0.00010887377
0.00012540585
0.00014529798
0.00016928389
0.00019826067
0.00023332727
0.0002758402
0.00032746418
0.00039024995
0.00046671981
0.00055998861
0.00067391856
0.00081330996
0.00098413929
0.0011786201
0.001179423
0.0011800352
0.0011805618
0.0011809576
0.0011812188
0.0011813341
0.0011812932
0.0011810873
0.0011807061
0.001180132
0.0011793381
0.0011782722
0.001176882
0.0011756124
0.0011745087
0.0011734647
0.0011724793
0.0011717455
0.0011715479
0.0011718609
4.0824282e-07
1.0515933e-05
1.88977e-05
1.9918274e-05
1.4597402e-05
1.9020445e-05
1.3620859e-05
1.7690356e-05
1.4798658e-05
1.9614602e-05
1.8142827e-05
2.0314739e-05
1.9340455e-05
1.9259335e-05
1.883062e-05
1.8604882e-05
1.845046e-05
1.8394299e-05
1.842411e-05
1.8533128e-05
1.8721319e-05
1.898802e-05
1.933187e-05
1.975392e-05
2.0255349e-05
2.0842081e-05
2.1520546e-05
2.2301406e-05
2.3198905e-05
2.4230452e-05
2.5413632e-05
2.6770002e-05
2.8328314e-05
3.012372e-05
3.2200735e-05
3.4613028e-05
3.7426159e-05
4.0718158e-05
4.4582644e-05
4.9137921e-05
5.4532967e-05
6.0935414e-05
6.8554121e-05
7.7651004e-05
8.855063e-05
0.0001016314
0.00011736543
0.00013633435
0.00015925177
0.00018699244
0.00022062669
0.0002614794
0.00031117772
0.00037173014
0.00044560937
0.0005358706
0.00064630413
0.00078162607
0.00094770966
0.0011518599
0.0011793039
0.0011798365
0.0011802887
0.0011806152
0.0011808118
0.0011808672
0.0011807703
0.001180512
0.0011800823
0.0011794634
0.0011786304
0.0011775469
0.001176164
0.001174957
0.0011739109
0.0011729234
0.0011719669
0.0011712099
0.0011711029
0.0011711144
3.6255572e-07
1.0243937e-05
1.8041335e-05
1.9978873e-05
1.4415338e-05
1.6819138e-05
1.2158767e-05
1.5489259e-05
1.3383052e-05
1.7324478e-05
1.6601909e-05
1.8065468e-05
1.7424898e-05
1.7200223e-05
1.6865629e-05
1.6655151e-05
1.6527516e-05
1.64837e-05
1.6518635e-05
1.6624774e-05
1.6802448e-05
1.7051737e-05
1.7371707e-05
1.7763942e-05
1.8229571e-05
1.8774522e-05
1.9404846e-05
2.0130495e-05
2.0964681e-05
2.1924407e-05
2.3026862e-05
2.4292324e-05
2.5748133e-05
2.7427432e-05
2.9372576e-05
3.1634679e-05
3.4276602e-05
3.7373751e-05
4.1016027e-05
4.5315329e-05
5.0417417e-05
5.6485199e-05
6.3720187e-05
7.2373782e-05
8.2764727e-05
9.5261525e-05
0.00011032333
0.00012851749
0.00015054116
0.00017725199
0.00020969701
0.00024917621
0.00029728652
0.00035600292
0.00042775917
0.00051556334
0.00062314869
0.00075516393
0.00091740133
0.0011170584
0.0011793581
0.001179797
0.0011801587
0.001180401
0.0011805187
0.0011805007
0.0011803356
0.001180013
0.0011795237
0.0011788502
0.0011779669
0.0011768551
0.001175487
0.0011743407
0.0011733512
0.0011724184
0.001171489
0.0011707273
0.0011706161
0.0011704449
3.2755041e-07
1.006088e-05
1.736351e-05
1.9666588e-05
1.419023e-05
1.4907254e-05
1.1543003e-05
1.367255e-05
1.2605558e-05
1.5451718e-05
1.5262587e-05
1.6097763e-05
1.5678631e-05
1.5368212e-05
1.5092306e-05
1.4898836e-05
1.4788365e-05
1.4752353e-05
1.4788703e-05
1.4890042e-05
1.5056683e-05
1.5289302e-05
1.5587233e-05
1.5952349e-05
1.6385942e-05
1.6893866e-05
1.7481824e-05
1.8159281e-05
1.8938453e-05
1.9835908e-05
2.0868647e-05
2.2055933e-05
2.3424007e-05
2.5004375e-05
2.683766e-05
2.89729e-05
3.1470731e-05
3.4404536e-05
3.786193e-05
4.1949369e-05
4.6809759e-05
5.2603054e-05
5.9526195e-05
6.7821173e-05
7.7803138e-05
8.9834206e-05
0.00010436407
0.0001219501
0.00014327738
0.00016919306
0.0002007278
0.00023916537
0.00028608259
0.00034343277
0.00041362561
0.00049963976
0.00060517242
0.00073482948
0.00089435452
0.0010908823
0.0011795793
0.0011799114
0.0011801682
0.0011803125
0.0011803385
0.0011802353
0.0011799907
0.0011795934
0.0011790343
0.0011782978
0.0011773553
0.0011762027
0.0011748632
0.0011737754
0.0011728407
0.0011719604
0.001171061
0.0011702969
0.001170127
0.0011698451
2.9426748e-07
9.951153e-06
1.6828986e-05
1.8546477e-05
1.4008348e-05
1.3161869e-05
1.1529558e-05
1.2579116e-05
1.2073599e-05
1.3732768e-05
1.4047388e-05
1.4356249e-05
1.4052326e-05
1.3705594e-05
1.3464232e-05
1.3289236e-05
1.3192625e-05
1.3164165e-05
1.320247e-05
1.3300746e-05
1.3458886e-05
1.3678099e-05
1.3957958e-05
1.4215933e-05
1.4612326e-05
1.5079948e-05
1.5623875e-05
1.6252732e-05
1.6977599e-05
1.7814253e-05
1.8779475e-05
1.9891553e-05
2.1175737e-05
2.266199e-05
2.438935e-05
2.640499e-05
2.8767485e-05
3.1548253e-05
3.4833492e-05
3.9017523e-05
4.3685312e-05
4.9261382e-05
5.5940892e-05
6.3957851e-05
7.36251e-05
8.5301777e-05
9.9431479e-05
0.00011656554
0.00013738069
0.00016271967
0.00019360294
0.00023130588
0.00027739418
0.00033380988
0.00040295158
0.00048778411
0.00059198689
0.000720144
0.00087797631
0.0010725926
0.0011799456
0.0011801594
0.0011802991
0.0011803341
0.0011802576
0.001180059
0.0011797257
0.0011792451
0.0011786076
0.0011778006
0.0011767938
0.001175586
0.0011743003
0.0011732689
0.0011723863
0.0011715572
0.0011706914
0.0011699217
0.0011696773
0.0011693167
2.6546982e-07
9.8875439e-06
1.6367097e-05
1.6818485e-05
1.2557854e-05
1.1460616e-05
9.7267391e-06
1.1175074e-05
1.0221753e-05
1.2371297e-05
1.2818688e-05
1.2754158e-05
1.2500011e-05
1.2164015e-05
1.1952176e-05
1.1801244e-05
1.1721457e-05
1.1703915e-05
1.1676034e-05
1.175728e-05
1.1898004e-05
1.2098527e-05
1.2357076e-05
1.2673529e-05
1.3052788e-05
1.3498546e-05
1.4016058e-05
1.4613927e-05
1.5302657e-05
1.609759e-05
1.7015775e-05
1.8075017e-05
1.9300142e-05
2.0720185e-05
2.2373313e-05
2.4305569e-05
2.6574349e-05
2.9249928e-05
3.2418114e-05
3.6183461e-05
4.0673491e-05
4.6049716e-05
5.2507619e-05
6.0783138e-05
7.0230869e-05
8.166566e-05
9.5528815e-05
0.00011236945
0.00013285985
0.00015784493
0.00018834143
0.00022562468
0.00027125907
0.00032718664
0.00039580875
0.00048009345
0.00058372248
0.00071128138
0.00086849552
0.0010624855
0.0011804361
0.0011805222
0.0011805351
0.0011804515
0.001180264
0.001179962
0.0011795325
0.0011789619
0.0011782392
0.0011773552
0.001176284
0.0011750094
0.0011738051
0.0011728287
0.0011719954
0.0011712169
0.0011703888
0.0011696072
0.001169275
0.0011687855
2.3676465e-07
9.8478157e-06
1.587372e-05
1.4725076e-05
1.0287222e-05
1.0209774e-05
8.0458986e-06
9.5974926e-06
9.7634155e-06
1.108736e-05
1.1583023e-05
1.1273139e-05
1.1045083e-05
1.0745127e-05
1.0562032e-05
1.036376e-05
1.027475e-05
1.025306e-05
1.0291355e-05
1.0386305e-05
1.053281e-05
1.0734438e-05
1.0988716e-05
1.1296399e-05
1.166229e-05
1.2090986e-05
1.2587856e-05
1.3161572e-05
1.3822277e-05
1.4584875e-05
1.5466809e-05
1.648567e-05
1.7666188e-05
1.9036784e-05
2.0635125e-05
2.250662e-05
2.4708003e-05
2.7308992e-05
3.0394856e-05
3.4069426e-05
3.8460832e-05
4.3728532e-05
5.0071438e-05
5.772047e-05
6.697158e-05
7.8193072e-05
9.2638786e-05
0.0001093424
0.00012969326
0.00015454471
0.00018491665
0.00022209274
0.00026764607
0.00032353012
0.00039216312
0.00047653378
0.00058034688
0.00070821342
0.00086589008
0.0010605448
0.0011810259
0.001180977
0.0011808562
0.0011806474
0.0011803425
0.0011799313
0.0011794004
0.0011787354
0.001177923
0.0011769559
0.0011758238
0.0011745086
0.0011733828
0.0011724608
0.0011716739
0.0011709456
0.0011701598
0.001169357
0.0011689338
0.0011683393
2.1861329e-07
9.8030505e-06
1.4054416e-05
1.2873781e-05
8.3167429e-06
9.0891138e-06
7.2923029e-06
8.6444638e-06
9.0439709e-06
9.920662e-06
1.0364354e-05
9.9309359e-06
9.7129356e-06
9.3627916e-06
9.1708498e-06
9.0498201e-06
8.9967244e-06
9.0020799e-06
9.058492e-06
9.1667095e-06
9.3207822e-06
9.5229331e-06
9.7747716e-06
1.0076406e-05
1.0432943e-05
1.0849461e-05
1.1331533e-05
1.188806e-05
1.2528993e-05
1.3268841e-05
1.4125504e-05
1.5116689e-05
1.6267268e-05
1.760533e-05
1.9168387e-05
2.1001642e-05
2.3161654e-05
2.5718172e-05
2.8756975e-05
3.2382553e-05
3.6723372e-05
4.1938714e-05
4.8231422e-05
5.5832893e-05
6.5042174e-05
7.6230445e-05
8.9855527e-05
0.00010645526
0.00012787036
0.00015280971
0.00018332193
0.00022070727
0.00026655825
0.00032285192
0.00039203829
0.00047714522
0.00058192271
0.0007110335
0.00087029418
0.0010669545
0.0011816886
0.0011814998
0.0011812414
0.0011809034
0.0011804775
0.0011799534
0.001179318
0.0011785561
0.0011776527
0.0011765986
0.0011754035
0.0011740911
0.0011730379
0.0011721697
0.0011714273
0.0011707476
0.0011700095
0.0011691864
0.0011686719
0.0011681071
1.9921691e-07
9.7525345e-06
1.1147155e-05
1.058889e-05
6.8884927e-06
8.095659e-06
6.6608049e-06
7.7718801e-06
8.4670862e-06
8.8586368e-06
9.1700664e-06
8.61971e-06
8.3529034e-06
8.1097641e-06
7.9686195e-06
7.8894278e-06
7.866367e-06
7.8960035e-06
7.9702681e-06
8.0886502e-06
8.2496619e-06
8.4550644e-06
8.7068971e-06
9.0059341e-06
9.3574128e-06
9.766943e-06
1.0240446e-05
1.0787118e-05
1.1416922e-05
1.2144038e-05
1.2920293e-05
1.3885447e-05
1.5008418e-05
1.6316909e-05
1.7848247e-05
1.9647458e-05
2.1770992e-05
2.4288698e-05
2.7287002e-05
3.0871379e-05
3.5171794e-05
4.0665737e-05
4.697309e-05
5.460515e-05
6.3864234e-05
7.5125828e-05
8.8861114e-05
0.00010562102
0.00012610032
0.00015116522
0.0001835419
0.00022145627
0.00026798873
0.00032515262
0.00039544542
0.00048195387
0.00058849671
0.00071981712
0.00088182292
0.0010818787
0.0011823966
0.0011820657
0.0011816685
0.0011812001
0.0011806519
0.0011800139
0.001179273
0.0011784136
0.0011774204
0.0011762806
0.0011750139
0.001173759
0.0011727732
0.0011719583
0.0011712599
0.001170625
0.0011699357
0.0011691119
0.0011685209
0.0011680258
1.8343728e-07
9.7043203e-06
8.8049633e-06
9.0230879e-06
6.1752815e-06
7.179611e-06
6.1203957e-06
7.0134401e-06
7.8811108e-06
7.8707082e-06
7.8746339e-06
7.4057461e-06
7.1888107e-06
7.0109314e-06
6.9131482e-06
6.8692554e-06
6.8741529e-06
6.9231065e-06
7.0128044e-06
7.142999e-06
7.312221e-06
7.5226973e-06
7.7774328e-06
8.0777465e-06
8.4290257e-06
8.7993463e-06
9.2630221e-06
9.7995331e-06
1.0418712e-05
1.113427e-05
1.1962703e-05
1.292545e-05
1.4046733e-05
1.5354402e-05
1.6886235e-05
1.8687855e-05
2.0816569e-05
2.3343346e-05
2.6356577e-05
2.9964235e-05
3.4299666e-05
3.9529532e-05
4.5858103e-05
5.3530443e-05
6.285438e-05
7.4857709e-05
8.8832657e-05
0.00010590541
0.00012678369
0.00015236103
0.00018372932
0.00022432808
0.00027193292
0.00033043747
0.00040240319
0.00049099696
0.00060013157
0.00073466197
0.00090062346
0.0011055277
0.0011831229
0.0011826499
0.0011821156
0.001181518
0.0011808486
0.0011800978
0.0011792528
0.0011782973
0.0011772164
0.0011760012
0.0011746631
0.0011735119
0.0011725893
0.0011718275
0.0011711743
0.0011705794
0.0011699287
0.0011691225
0.0011685009
0.0011680485
1.6957658e-07
9.6327494e-06
7.0142549e-06
7.9387019e-06
5.5141185e-06
6.3614566e-06
5.6566356e-06
6.3409574e-06
7.1807674e-06
6.7488249e-06
6.7058642e-06
6.3454516e-06
6.1745421e-06
6.0498162e-06
5.9894873e-06
5.9761041e-06
6.0049611e-06
6.0735324e-06
6.1786733e-06
6.3211106e-06
6.5003278e-06
6.7186941e-06
6.9502484e-06
7.2495541e-06
7.5997688e-06
8.0058791e-06
8.4761411e-06
9.0194045e-06
9.6457382e-06
1.0369087e-05
1.1206143e-05
1.2178131e-05
1.3310745e-05
1.4632327e-05
1.6181412e-05
1.8004649e-05
2.0160821e-05
2.2722609e-05
2.5781174e-05
2.9448156e-05
3.3860504e-05
3.9188911e-05
4.5648394e-05
5.3490512e-05
6.3033074e-05
7.4671424e-05
8.8896756e-05
0.00010630303
0.0001287458
0.00015505653
0.00018734294
0.00022699947
0.0002783767
0.00033870189
0.00041291961
0.00050430011
0.00061687759
0.00075565207
0.00092682962
0.0011381047
0.0011838412
0.0011832285
0.0011825613
0.0011818381
0.0011810511
0.0011801905
0.0011792446
0.001178197
0.0011770311
0.0011757543
0.0011744198
0.0011733479
0.0011724854
0.0011717758
0.0011711705
0.0011706116
0.0011699893
0.0011692243
0.0011686338
0.0011682229
1.5735949e-07
9.5065156e-06
5.6415937e-06
6.9573109e-06
4.9221278e-06
5.6336091e-06
5.2649298e-06
5.6546348e-06
6.2974913e-06
5.7759275e-06
5.6824094e-06
5.4203602e-06
5.2927368e-06
5.2125042e-06
5.185452e-06
5.1996897e-06
5.2512189e-06
5.3386186e-06
5.4598159e-06
5.5949949e-06
5.7799137e-06
6.0041794e-06
6.2705881e-06
6.5827204e-06
6.9456397e-06
7.3647329e-06
7.8481456e-06
8.4054219e-06
9.0468786e-06
9.7866647e-06
1.064165e-05
1.1633384e-05
1.2730471e-05
1.4066075e-05
1.5632322e-05
1.7476859e-05
1.9660179e-05
2.2256726e-05
2.5360474e-05
2.90873e-05
3.3578902e-05
3.9307399e-05
4.5956649e-05
5.4040025e-05
6.3886563e-05
7.5903287e-05
9.0605239e-05
0.00010861298
0.00013068657
0.00015921758
0.00019269054
0.00023382206
0.00028439127
0.00034992429
0.00042698408
0.00052186751
0.00063876136
0.00078284456
0.00096054409
0.0011797864
0.0011845271
0.0011837797
0.001182986
0.001182143
0.0011812436
0.0011802783
0.001179236
0.0011781029
0.0011768604
0.0011755194
0.0011742664
0.0011732667
0.0011724591
0.0011718001
0.0011712456
0.0011707201
0.0011701122
0.0011694078
0.001168917
0.0011685506
1.4664627e-07
9.2912656e-06
4.6099197e-06
6.0813343e-06
4.3936663e-06
4.9885334e-06
4.925357e-06
4.9079189e-06
5.407222e-06
4.910985e-06
4.7980438e-06
4.6170551e-06
4.5303279e-06
4.4884955e-06
4.4917128e-06
4.5316479e-06
4.6051562e-06
4.6930144e-06
4.8252023e-06
4.992561e-06
5.1962818e-06
5.4382827e-06
5.7220877e-06
6.0514559e-06
6.4320497e-06
6.8695221e-06
7.3720832e-06
7.9259641e-06
8.5827851e-06
9.338918e-06
1.0211335e-05
1.1221679e-05
1.2396446e-05
1.3768953e-05
1.5378992e-05
1.7275883e-05
1.9522976e-05
2.2197646e-05
2.5397751e-05
2.9245185e-05
3.3888318e-05
3.9514096e-05
4.6348667e-05
5.4670645e-05
6.482336e-05
7.7877701e-05
9.3178462e-05
0.00011193246
0.00013493734
0.00016317699
0.00019972255
0.00024265075
0.00029544718
0.00036039862
0.00044454854
0.00054365961
0.00066575815
0.00081623689
0.001001795
0.001186013
0.0011851588
0.0011842847
0.0011833726
0.0011824173
0.0011814124
0.0011803491
0.0011792161
0.0011780034
0.001176704
0.0011753361
0.0011741973
0.0011732651
0.0011725077
0.0011718965
0.0011713938
0.0011709012
0.0011702967
0.0011696584
0.0011693132
0.001168974
1.3732091e-07
8.989151e-06
3.9621844e-06
5.3035811e-06
3.9243236e-06
4.4181598e-06
4.3859471e-06
4.2335909e-06
4.5492082e-06
4.1481867e-06
4.041888e-06
3.9255648e-06
3.8771714e-06
3.869476e-06
3.9008079e-06
3.9507677e-06
4.0391435e-06
4.16146e-06
4.317032e-06
4.5063095e-06
4.7311174e-06
4.9938969e-06
5.2985958e-06
5.6492596e-06
6.0383041e-06
6.4944791e-06
7.0162931e-06
7.6132787e-06
8.2974372e-06
9.0830907e-06
9.9877079e-06
1.1033876e-05
1.2249253e-05
1.366851e-05
1.5334265e-05
1.7297753e-05
1.9625829e-05
2.2399639e-05
2.5721213e-05
2.9719851e-05
3.4550031e-05
4.0408312e-05
4.753576e-05
5.6223692e-05
6.6835051e-05
7.9815184e-05
9.6562191e-05
0.00011620645
0.00014031253
0.00016992463
0.00020630046
0.00025340319
0.00030880903
0.00037699066
0.00046090582
0.00056956342
0.00069775603
0.00085572542
0.0010504849
0.0011866847
0.0011857182
0.0011847283
0.0011837073
0.0011826485
0.001181546
0.0011803926
0.0011791773
0.0011778906
0.0011765464
0.001175251
0.0011742034
0.0011733378
0.0011726278
0.001172061
0.0011716068
0.0011711477
0.0011705472
0.0011699692
0.0011697838
0.0011695331
1.2942862e-07
8.113859e-06
3.4947119e-06
4.6089024e-06
3.5088205e-06
3.7483859e-06
3.9108532e-06
3.6159836e-06
3.772142e-06
3.486207e-06
3.4028189e-06
3.3380217e-06
3.3250083e-06
3.3485378e-06
3.3894772e-06
3.4731371e-06
3.5895394e-06
3.7374926e-06
3.9172384e-06
4.1299733e-06
4.3780802e-06
4.6642771e-06
4.9833873e-06
5.3554547e-06
5.7796304e-06
6.2625973e-06
6.8124068e-06
7.4389601e-06
8.1545391e-06
8.974411e-06
9.9166466e-06
1.1004851e-05
1.2267998e-05
1.3742563e-05
1.5407588e-05
1.7433092e-05
1.9836851e-05
2.2704358e-05
2.6299502e-05
3.0477545e-05
3.5529818e-05
4.1662408e-05
4.9132599e-05
5.824754e-05
6.9388892e-05
8.3029131e-05
9.9747907e-05
0.00012025658
0.00014672822
0.00017790882
0.00021622698
0.00026333902
0.00032432955
0.0003961914
0.00048464924
0.0005993567
0.00073451003
0.00090105109
0.0011063446
0.0011872644
0.0011861934
0.001185099
0.0011839796
0.0011828274
0.0011816362
0.0011804005
0.0011791131
0.0011777683
0.0011763944
0.0011752395
0.0011742777
0.0011734768
0.0011728146
0.0011722896
0.0011718761
0.0011714481
0.0011708684
0.0011703609
0.0011703245
0.0011702715
1.2321701e-07
5.9179725e-06
3.0964089e-06
3.9801401e-06
3.1504413e-06
3.1297925e-06
3.4361576e-06
3.0559146e-06
3.1039847e-06
2.9211644e-06
2.8688315e-06
2.8466923e-06
2.8579522e-06
2.9025308e-06
2.9837475e-06
3.0971606e-06
3.2407301e-06
3.4143285e-06
3.6189873e-06
3.8563633e-06
4.1232949e-06
4.4325592e-06
4.7843261e-06
5.1833532e-06
5.6353388e-06
6.1472108e-06
6.7274106e-06
7.3862497e-06
8.1364255e-06
8.9741769e-06
9.9516239e-06
1.1078676e-05
1.2385539e-05
1.3910054e-05
1.5699546e-05
1.7813168e-05
2.0324038e-05
2.3323661e-05
2.6925544e-05
3.1269889e-05
3.6530736e-05
4.3231516e-05
5.1088715e-05
6.0685866e-05
7.2424587e-05
8.6804103e-05
0.00010443841
0.00012608328
0.00015406916
0.00018699653
0.00022747655
0.00027725704
0.00034178641
0.00041774068
0.00051125904
0.00062643631
0.00077559954
0.00095174092
0.001168852
0.0011877455
0.0011865777
0.0011853903
0.001184183
0.0011829483
0.0011816786
0.0011803689
0.0011790176
0.0011776379
0.0011763407
0.0011752879
0.0011744094
0.0011736722
0.0011730605
0.0011725771
0.0011721958
0.0011717928
0.0011712513
0.0011708181
0.0011709214
0.0011709271
1.1834698e-07
4.4285916e-06
2.7399418e-06
3.3984992e-06
2.6933346e-06
2.6098952e-06
2.9351806e-06
2.5570541e-06
2.5486282e-06
2.4471001e-06
2.4298659e-06
2.4372376e-06
2.4813382e-06
2.5617271e-06
2.6738962e-06
2.8152462e-06
2.9850474e-06
3.1839076e-06
3.4102464e-06
3.6711033e-06
3.9676766e-06
4.3033038e-06
4.6820556e-06
5.1088931e-06
5.5898108e-06
6.1320451e-06
6.7443924e-06
7.4264464e-06
8.2093841e-06
9.1019029e-06
1.0124429e-05
1.1302337e-05
1.2667609e-05
1.4260403e-05
1.613105e-05
1.8342259e-05
2.0971945e-05
2.411702e-05
2.7898013e-05
3.2464433e-05
3.800149e-05
4.4737488e-05
5.3348657e-05
6.3473967e-05
7.5866867e-05
9.1055373e-05
0.00010968947
0.00013257077
0.00016068755
0.0001970094
0.00023983771
0.00029252016
0.00035735241
0.00044126807
0.00054028952
0.00066226926
0.00082038706
0.0010070493
0.0011893896
0.0011881254
0.0011868698
0.0011856007
0.0011843156
0.0011830087
0.0011816721
0.0011802998
0.0011788982
0.0011775072
0.0011763505
0.001175389
0.0011745874
0.0011739123
0.0011733541
0.0011729145
0.0011725585
0.0011721705
0.0011716763
0.0011713406
0.0011715295
0.0011716292
1.1319585e-07
3.9427316e-06
2.3606114e-06
2.8605342e-06
2.3204635e-06
2.1748273e-06
2.4180762e-06
2.1209265e-06
2.0996468e-06
2.0607519e-06
2.0742555e-06
2.1176818e-06
2.1989629e-06
2.3109791e-06
2.4510277e-06
2.6181073e-06
2.8125011e-06
3.0332079e-06
3.2858183e-06
3.5716383e-06
3.8936345e-06
4.2554103e-06
4.6612835e-06
5.1164195e-06
5.6270314e-06
6.2006297e-06
6.8387701e-06
7.5645072e-06
8.3865281e-06
9.3219538e-06
1.0392325e-05
1.1624536e-05
1.3052404e-05
1.4718439e-05
1.6676125e-05
1.8992398e-05
2.1750328e-05
2.5052826e-05
2.9027831e-05
3.3833421e-05
3.9665761e-05
4.7105787e-05
5.5847521e-05
6.6535632e-05
7.9625394e-05
9.5675057e-05
0.00011537231
0.00013956515
0.0001708678
0.00020771695
0.00025303106
0.00030878635
0.00037741706
0.00046627167
0.00057114139
0.0007003643
0.00086797066
0.001065887
0.0011897364
0.0011884047
0.0011870733
0.0011857336
0.0011843804
0.0011830102
0.0011816175
0.0011801959
0.0011787632
0.0011774687
0.001176409
0.0011755315
0.0011748008
0.0011741864
0.0011736807
0.0011732873
0.0011729543
0.0011725776
0.0011721325
0.0011719069
0.00117217
0.0011722687
1.0976823e-07
3.4325405e-06
2.0348867e-06
2.3133435e-06
2.015175e-06
1.8037261e-06
1.9392206e-06
1.7535621e-06
1.7497497e-06
1.7609475e-06
1.8056428e-06
1.8876575e-06
2.0001954e-06
2.1392098e-06
2.3036276e-06
2.4936902e-06
2.7093051e-06
2.9541451e-06
3.2300464e-06
3.539734e-06
3.8864718e-06
4.2740821e-06
4.7070504e-06
5.1906918e-06
5.7313881e-06
6.3325676e-06
7.0101274e-06
7.772891e-06
8.6351646e-06
9.6149071e-06
1.0734917e-05
1.202368e-05
1.3517045e-05
1.5260009e-05
1.7309138e-05
1.9735535e-05
2.2628043e-05
2.6095673e-05
3.0274498e-05
3.5331965e-05
4.1748429e-05
4.9294538e-05
5.8508058e-05
6.9780508e-05
8.3591826e-05
0.00010053311
0.00012133136
0.00014688356
0.00017990214
0.00021882432
0.00026670241
0.00032562703
0.00039818121
0.00049208418
0.00060300784
0.00073974674
0.00091714449
0.0011267884
0.0011899856
0.0011885921
0.0011871959
0.0011857964
0.0011843857
0.0011829597
0.0011815191
0.0011800723
0.0011786539
0.0011774873
0.0011765122
0.001175705
0.0011750373
0.0011744851
0.0011740269
0.0011736779
0.0011733686
0.0011730078
0.001172616
0.0011724912
0.0011728127
0.0011728889
1.0833337e-07
2.9001496e-06
1.7535148e-06
1.7865487e-06
1.7366136e-06
1.4878033e-06
1.5495115e-06
1.4626398e-06
1.4908164e-06
1.5376822e-06
1.621272e-06
1.7336922e-06
1.8713864e-06
2.0327608e-06
2.2180932e-06
2.4285525e-06
2.6651114e-06
2.9312952e-06
3.2292379e-06
3.5619314e-06
3.9328133e-06
4.3458486e-06
4.8056462e-06
5.3176399e-06
5.888339e-06
6.5256697e-06
7.2394156e-06
8.0417494e-06
8.9376204e-06
9.9622421e-06
1.1132624e-05
1.247894e-05
1.403921e-05
1.5861142e-05
1.8004433e-05
2.06274e-05
2.3680204e-05
2.734358e-05
3.1762449e-05
3.7115509e-05
4.3622763e-05
5.1554663e-05
6.1245244e-05
7.3105595e-05
8.7641958e-05
0.00010547823
0.00012738202
0.00015564718
0.00018898484
0.00022997987
0.00028041991
0.00034251318
0.00042295633
0.00051788169
0.00063488202
0.00077919028
0.00096637919
0.0011878884
0.0011901531
0.0011887028
0.0011872504
0.0011857994
0.0011843425
0.0011828723
0.0011813865
0.0011799156
0.0011786235
0.0011775496
0.0011766535
0.0011759054
0.0011752855
0.0011747928
0.0011743823
0.0011740706
0.0011737858
0.0011734518
0.001173121
0.001173074
0.0011734184
0.0011734664
1.0996038e-07
2.368863e-06
1.5196656e-06
1.3820894e-06
1.4558019e-06
1.2241446e-06
1.2649525e-06
1.2501283e-06
1.3113862e-06
1.3926059e-06
1.5043826e-06
1.6397496e-06
1.7973903e-06
1.9774333e-06
2.1811026e-06
2.410148e-06
2.6663418e-06
2.9527231e-06
3.2718356e-06
3.6268028e-06
4.0211636e-06
4.4589748e-06
4.944946e-06
5.4846297e-06
6.0846855e-06
6.7532369e-06
7.5003468e-06
8.3386123e-06
9.2839029e-06
1.0356295e-05
1.1581167e-05
1.299066e-05
1.4625263e-05
1.653587e-05
1.8786157e-05
2.1455524e-05
2.4642714e-05
2.8470511e-05
3.3090774e-05
3.8691386e-05
4.5504293e-05
5.3814692e-05
6.3971231e-05
7.6405717e-05
9.1648442e-05
0.00011126661
0.00013441144
0.00016284437
0.00019779727
0.0002407917
0.00029370524
0.00036222733
0.00044308146
0.00054272106
0.00066560105
0.00082519504
0.0010138614
0.001191781
0.0011902569
0.0011887568
0.0011872566
0.0011857583
0.0011842601
0.0011827615
0.0011812667
0.001179814
0.0011786355
0.0011776456
0.0011768222
0.0011761342
0.0011755614
0.0011750977
0.0011747385
0.0011744552
0.0011741923
0.0011738931
0.0011736311
0.0011736497
0.0011739962
0.0011740215
1.1586814e-07
1.8741995e-06
1.3319644e-06
1.0873918e-06
1.3026284e-06
1.0044489e-06
1.0716611e-06
1.1090734e-06
1.1968693e-06
1.3052536e-06
1.437447e-06
1.5904118e-06
1.764553e-06
1.9610102e-06
2.1814986e-06
2.4280267e-06
2.70288e-06
3.0084287e-06
3.3477775e-06
3.7240188e-06
4.1407657e-06
4.6021592e-06
5.1130109e-06
5.6790021e-06
6.3069581e-06
7.0052188e-06
7.7841383e-06
8.6567642e-06
9.6395858e-06
1.0753555e-05
1.2025187e-05
1.3488144e-05
1.5184869e-05
1.7168742e-05
1.9506567e-05
2.2281661e-05
2.5597536e-05
2.9582439e-05
3.4394892e-05
4.0230538e-05
4.7653734e-05
5.6385948e-05
6.7057131e-05
8.0119964e-05
9.6130711e-05
0.00011577446
0.00013989569
0.00016953582
0.0002059761
0.00025314968
0.00030874383
0.00037719007
0.00046151797
0.00056548926
0.00070054889
0.00086014751
0.0010573606
0.0011918642
0.001190309
0.0011887727
0.0011872373
0.0011857013
0.0011841617
0.0011826232
0.0011811168
0.0011797862
0.0011786828
0.0011777633
0.0011769992
0.0011763648
0.0011758389
0.0011754082
0.0011750854
0.0011748256
0.0011745819
0.0011743208
0.0011741277
0.0011741999
0.0011745276
0.0011745136
1.2679138e-07
1.4994882e-06
1.1732972e-06
9.4081351e-07
9.5524997e-07
8.8055224e-07
9.4304865e-07
1.0227319e-06
1.1307218e-06
1.2580895e-06
1.4056475e-06
1.5731937e-06
1.7619524e-06
1.9734453e-06
2.2095299e-06
2.4722794e-06
2.7640146e-06
3.0873225e-06
3.4451035e-06
3.8406239e-06
4.2775952e-06
4.7602793e-06
5.2936384e-06
5.8835471e-06
6.5370868e-06
7.2603504e-06
8.0678293e-06
8.9713663e-06
9.9970045e-06
1.1152551e-05
1.2471851e-05
1.3990225e-05
1.575217e-05
1.7813567e-05
2.0244295e-05
2.3131383e-05
2.6582859e-05
3.0732461e-05
3.5745374e-05
4.1825347e-05
4.9223434e-05
5.8248797e-05
6.9281812e-05
8.2788387e-05
9.9344267e-05
0.00011965765
0.00014588872
0.00017677643
0.00021474142
0.00026143818
0.00031891242
0.00038970114
0.00047695175
0.00059013357
0.00072396902
0.000889316
0.0010938209
0.0011919138
0.0011903298
0.0011887636
0.0011872038
0.0011856474
0.0011840914
0.0011825417
0.0011810424
0.0011798066
0.0011787675
0.0011779025
0.0011771823
0.0011765887
0.0011761209
0.0011757059
0.0011754122
0.0011751725
0.0011749481
0.0011747273
0.0011745949
0.0011746993
0.0011749923
0.0011749594
1.487177e-07
1.5093779e-06
1.0127816e-06
7.186571e-07
7.7960281e-07
7.8658177e-07
8.7033948e-07
9.7243148e-07
1.0965129e-06
1.2383447e-06
1.3991015e-06
1.5796892e-06
1.7816086e-06
2.0064925e-06
2.2562265e-06
2.5329127e-06
2.8389052e-06
3.1768398e-06
3.5496769e-06
3.9607542e-06
4.4138596e-06
4.9133349e-06
5.464225e-06
6.07249e-06
6.7453082e-06
7.491489e-06
8.3220205e-06
9.2507703e-06
1.0295372e-05
1.1478282e-05
1.2828047e-05
1.4380893e-05
1.6182514e-05
1.8290315e-05
2.0776046e-05
2.3729028e-05
2.7260066e-05
3.1506206e-05
3.6636568e-05
4.2859516e-05
5.0431613e-05
6.009613e-05
7.1474696e-05
8.5399739e-05
0.00010246389
0.00012339579
0.00014909435
0.00018066917
0.00021949126
0.0002672545
0.00032606139
0.00040219804
0.00049218805
0.00060321713
0.000740351
0.00090992575
0.0011198708
0.0011919716
0.0011903578
0.0011887603
0.0011871725
0.0011855921
0.0011840197
0.0011824724
0.0011810391
0.001179867
0.0011788827
0.0011780647
0.0011773831
0.0011768201
0.001176358
0.0011759934
0.0011757112
0.0011754882
0.0011752833
0.0011751008
0.0011750142
0.0011751271
0.0011753749
0.0011753384
1.4504392e-07
9.2339683e-07
8.2927297e-07
6.1177474e-07
6.6919002e-07
7.295126e-07
8.315304e-07
9.5020157e-07
1.0871905e-06
1.2414837e-06
1.4143329e-06
1.6069309e-06
1.820807e-06
2.0576626e-06
2.3194242e-06
2.6082512e-06
2.926565e-06
3.2770365e-06
3.6627628e-06
4.0871395e-06
4.5540377e-06
5.0678835e-06
5.6338076e-06
6.2578603e-06
6.9473191e-06
7.7111097e-06
8.5603642e-06
9.5091438e-06
1.0583989e-05
1.1794309e-05
1.317518e-05
1.4763745e-05
1.6606792e-05
1.876304e-05
2.1305818e-05
2.4326351e-05
2.7937737e-05
3.2279811e-05
3.7525122e-05
4.388625e-05
5.1624798e-05
6.106235e-05
7.2593964e-05
8.6707007e-05
0.00010400078
0.00012521423
0.00015125913
0.00018486997
0.00022451012
0.00027327197
0.00033330511
0.00040727634
0.00049850532
0.00061113335
0.00075033969