/*--------------------------------*- C++ -*----------------------------------*\
| =========                 |                                                 |
| \\      /  F ield         | OpenFOAM: The Open Source CFD Toolbox           |
|  \\    /   O peration     | Version:  2512                                  |
|   \\  /    A nd           | Website:  www.openfoam.com                      |
|    \\/     M anipulation  |                                                 |
\*---------------------------------------------------------------------------*/
FoamFile
{
    version     2.0;
    format      ascii;
    arch        "LSB;label=32;scalar=64";
    class       volScalarField;
    location    "0.142";
    object      k;
}
// * * * * * * * * * * * * * * * * * * * * * * * * * * * * * * * * * * * * * //

dimensions      [0 2 -2 0 0 0 0];

internalField   nonuniform List<scalar> 
16000
(
0.059733918
0.02140791
0.022438701
0.016530052
0.014004135
0.012679447
0.011889511
0.011415304
0.011098441
0.010883177
0.010724572
0.010606412
0.010514096
0.010440986
0.010382148
0.010334632
0.010295784
0.010263846
0.010237837
0.010216329
0.010198891
0.010184582
0.010173101
0.010163957
0.010156812
0.010151369
0.010147446
0.010144854
0.010143459
0.010143128
0.010143738
0.010145185
0.010147387
0.010150274
0.010153785
0.010157861
0.010162446
0.010167479
0.010172905
0.010178665
0.010184697
0.01019093
0.010197297
0.010203733
0.010210162
0.010216514
0.01022273
0.010228759
0.010234559
0.010240087
0.0102453
0.010250153
0.010254599
0.010258592
0.010262094
0.01026507
0.010267488
0.010269312
0.0102705
0.010270995
0.010270719
0.010269568
0.010267437
0.010264185
0.010259646
0.010253658
0.010246094
0.010236852
0.010225786
0.010212624
0.010196814
0.010177191
0.010153094
0.010130761
0.010112439
0.010096493
0.010082708
0.010080834
0.010072743
0.010100004
0.054681934
0.020055129
0.020982781
0.015984294
0.013660961
0.012478993
0.011727941
0.011303174
0.010998186
0.010800454
0.010651829
0.010542422
0.01045649
0.010388851
0.01033446
0.010290791
0.01025531
0.010226232
0.010202845
0.010183619
0.010168304
0.010155905
0.010146192
0.010138694
0.010133098
0.010129098
0.010126532
0.010125212
0.010125008
0.010125799
0.010127463
0.010129896
0.010133015
0.010136747
0.010141032
0.010145811
0.010151027
0.010156623
0.010162541
0.010168725
0.010175116
0.010181644
0.010188247
0.010194859
0.010201412
0.010207836
0.01021407
0.010220069
0.010225791
0.010231199
0.010236257
0.010240926
0.010245163
0.010248927
0.010252181
0.010254896
0.010257043
0.01025859
0.010259497
0.010259713
0.010259169
0.01025777
0.010255416
0.010251973
0.010247276
0.010241153
0.010233463
0.010224102
0.010212928
0.010199682
0.01018391
0.010164633
0.010141076
0.010119798
0.01010244
0.010087315
0.010075003
0.010069837
0.010070064
0.010098413
0.05001858
0.019087941
0.019645765
0.015422481
0.013309844
0.012253127
0.011560363
0.011176915
0.010895943
0.010716319
0.01057882
0.010478594
0.010399544
0.010337672
0.01028805
0.010248457
0.010216579
0.010190552
0.01016997
0.01015318
0.010140129
0.010129771
0.010121939
0.010116184
0.010112227
0.010109753
0.010108619
0.01010864
0.01010969
0.010111654
0.010114416
0.010117872
0.010121935
0.010126534
0.010131605
0.01013709
0.010142931
0.010149071
0.010155452
0.01016202
0.010168716
0.010175477
0.01018224
0.010188943
0.010195524
0.010201916
0.01020806
0.010213913
0.010219438
0.010224604
0.01022938
0.010233733
0.01023763
0.010241033
0.010243909
0.010246233
0.01024798
0.010249123
0.010249624
0.010249436
0.010248496
0.010246719
0.010244011
0.010240244
0.010235257
0.010228872
0.010220937
0.010211342
0.010199953
0.010186509
0.010170613
0.010151502
0.010128457
0.010108405
0.010092138
0.01007815
0.010066662
0.010060377
0.010064454
0.010086412
0.044479067
0.018431227
0.018493509
0.014918991
0.012992038
0.01204923
0.011407317
0.011062677
0.010802265
0.010639101
0.010512209
0.010420463
0.010347978
0.010291562
0.010246496
0.010210785
0.010182388
0.010159287
0.010141427
0.010126995
0.01011615
0.010107783
0.010101795
0.010097744
0.010095392
0.010094418
0.010094686
0.01009602
0.010098295
0.010101399
0.010105221
0.010109656
0.010114616
0.010120025
0.010125819
0.010131938
0.010138324
0.010144921
0.01015167
0.010158517
0.01016541
0.010172287
0.010179088
0.010185757
0.010192238
0.010198468
0.010204392
0.01020997
0.010215169
0.010219966
0.010224336
0.010228254
0.010231692
0.01023462
0.010237009
0.010238837
0.010240084
0.010240725
0.010240728
0.010240048
0.010238627
0.010236389
0.010233244
0.010229074
0.010223721
0.010217003
0.010208755
0.010198859
0.010187192
0.010173494
0.010157399
0.010138391
0.010115795
0.010097001
0.010081896
0.010069072
0.010058179
0.01005176
0.010058324
0.010073898
0.040487815
0.018040114
0.017545508
0.014453143
0.012696
0.011856552
0.011263802
0.010954916
0.010714946
0.010567214
0.010450734
0.010367075
0.010301017
0.010249902
0.010209306
0.010177384
0.010152431
0.010132209
0.010117058
0.010104969
0.010096326
0.010089956
0.010085825
0.010083481
0.010082737
0.010083274
0.010084942
0.010087589
0.010091081
0.010095312
0.010100171
0.010105552
0.010111366
0.010117534
0.010123988
0.010130666
0.010137512
0.010144468
0.010151479
0.010158492
0.010165457
0.010172319
0.010179023
0.010185517
0.010191753
0.010197675
0.010203234
0.010208393
0.010213126
0.010217415
0.010221243
0.010224593
0.010227445
0.010229774
0.010231558
0.010232777
0.010233414
0.010233449
0.010232854
0.010231587
0.010229592
0.0102268
0.010223129
0.010218467
0.010212662
0.010205531
0.010196896
0.010186625
0.010174606
0.010160595
0.010144214
0.010125222
0.01010326
0.010085754
0.010071858
0.010060187
0.010049901
0.010043761
0.010051072
0.010061962
0.03743484
0.017877228
0.01684802
0.014026198
0.012423922
0.011677359
0.011131234
0.010855155
0.010634836
0.010501311
0.010394943
0.010318907
0.010259069
0.010213064
0.010176822
0.010148575
0.010127019
0.010109623
0.010097159
0.010087409
0.010080955
0.010076593
0.010074354
0.010073712
0.010074553
0.010076627
0.010079665
0.010083609
0.010088297
0.010093619
0.010099468
0.010105737
0.010112333
0.010119174
0.010126191
0.010133321
0.010140505
0.01014769
0.010154822
0.010161852
0.010168735
0.010175422
0.010181866
0.010188022
0.01019385
0.010199303
0.01020434
0.010208928
0.010213048
0.010216688
0.01021984
0.010222494
0.010224638
0.010226255
0.010227325
0.010227832
0.010227762
0.010227101
0.010225821
0.010223883
0.010221236
0.010217814
0.010213541
0.010208314
0.010201985
0.010194373
0.010185289
0.010174583
0.010162152
0.010147783
0.010131062
0.010111968
0.010090918
0.010074737
0.010062078
0.010051549
0.010041966
0.010036261
0.01004321
0.010050804
0.03437567
0.017887295
0.016344963
0.013634515
0.012173164
0.011510934
0.011009258
0.010763125
0.010561763
0.010441265
0.01034469
0.010275897
0.010222107
0.01018108
0.010149129
0.010124489
0.010106321
0.010091745
0.01008196
0.01007461
0.010070324
0.010068039
0.010067818
0.010068845
0.010071192
0.010074737
0.010079205
0.010084424
0.010090269
0.010096631
0.010103402
0.010110475
0.010117754
0.010125153
0.010132604
0.010140041
0.01014741
0.010154659
0.010161739
0.010168608
0.010175224
0.010181552
0.010187552
0.010193187
0.010198428
0.010203239
0.010207587
0.010211446
0.010214803
0.010217654
0.010219997
0.010221831
0.01022315
0.010223944
0.010224198
0.010223898
0.010223034
0.010221591
0.010219548
0.010216866
0.010213495
0.010209374
0.010204434
0.010198575
0.010191658
0.010183505
0.010173917
0.010162726
0.010149826
0.010135058
0.010117985
0.010098625
0.010078929
0.010064094
0.010052675
0.010043274
0.010034505
0.010029264
0.010035424
0.010040171
0.031667047
0.017999836
0.015922543
0.013275736
0.011942082
0.011357114
0.010897317
0.010678725
0.010495371
0.010387014
0.010299973
0.010238158
0.010190295
0.010154171
0.010126489
0.010105427
0.010090641
0.010078934
0.010071757
0.010067026
0.010064759
0.010064785
0.010066011
0.010068954
0.01007305
0.010078083
0.010083899
0.010090344
0.010097281
0.010104597
0.010112183
0.010119934
0.010127752
0.01013555
0.01014326
0.010150818
0.010158173
0.010165279
0.010172097
0.01017859
0.010184728
0.010190485
0.010195835
0.010200751
0.010205215
0.010209204
0.010212695
0.010215668
0.010218117
0.010220045
0.010221456
0.010222356
0.010222745
0.010222621
0.010221971
0.010220783
0.010219049
0.010216756
0.010213884
0.010210397
0.010206245
0.01020137
0.010195707
0.010189162
0.010181605
0.010172861
0.010162727
0.010151015
0.0101376
0.010122388
0.010105011
0.010085258
0.01006738
0.010053916
0.010043721
0.010035436
0.010027599
0.010022805
0.010027774
0.010030069
0.028810281
0.018154863
0.015402058
0.012946771
0.011729391
0.011215039
0.010794942
0.010601513
0.010435997
0.010338949
0.010261143
0.010206083
0.010164031
0.010132747
0.010109326
0.010091837
0.010080341
0.010071676
0.010066741
0.010064787
0.01006332
0.01006677
0.010070209
0.010074855
0.010080518
0.010086995
0.010094104
0.010101687
0.010109604
0.010117739
0.010125984
0.010134234
0.010142393
0.010150376
0.010158116
0.010165557
0.010172654
0.010179369
0.010185675
0.010191548
0.01019697
0.010201927
0.010206408
0.0102104
0.010213895
0.010216884
0.010219354
0.010221294
0.010222702
0.010223587
0.010223957
0.010223825
0.010223197
0.010222073
0.010220447
0.010218307
0.010215643
0.010212445
0.010208694
0.010204354
0.010199377
0.010193704
0.010187276
0.010180004
0.010171765
0.010162391
0.010151677
0.010139419
0.010125465
0.010109752
0.010092161
0.010072446
0.01005637
0.010044298
0.0100353
0.01002811
0.010021308
0.010016959
0.010020504
0.01002043
0.027111517
0.018280959
0.014729415
0.012644961
0.011535288
0.011085657
0.010703458
0.010532432
0.010384198
0.010297504
0.01022862
0.010180134
0.010143785
0.010117294
0.010098132
0.010084271
0.010075606
0.010070564
0.010066333
0.010068971
0.010071511
0.010075132
0.010080442
0.010086811
0.010094012
0.010101842
0.010110124
0.010118699
0.010127423
0.010136178
0.010144856
0.010153358
0.010161593
0.010169482
0.010176965
0.010183996
0.010190542
0.01019658
0.010202095
0.010207079
0.01021153
0.010215451
0.010218843
0.010221708
0.010224052
0.010225876
0.010227179
0.010227955
0.010228209
0.010227951
0.010227194
0.010225953
0.01022424
0.010222058
0.010219403
0.010216264
0.01021263
0.010208489
0.010203823
0.010198598
0.010192766
0.010186268
0.010179046
0.010171018
0.010162068
0.010152035
0.010140717
0.010127901
0.010113409
0.010097155
0.010079335
0.010060336
0.010045988
0.010035313
0.010027477
0.010021344
0.01001565
0.010011779
0.010013845
0.010012581
0.025155856
0.018368089
0.01417908
0.012368686
0.011360472
0.010968607
0.010622873
0.010471736
0.01034
0.010263055
0.010202805
0.010160786
0.010130069
0.010108358
0.01009345
0.010083422
0.010075683
0.010076301
0.010077236
0.01007952
0.010084071
0.010090156
0.010097293
0.010105282
0.010113892
0.010122917
0.010132179
0.010141519
0.010150793
0.010159883
0.010168685
0.010177112
0.010185083
0.010192531
0.010199411
0.010205691
0.010211356
0.0102164
0.010220827
0.010224646
0.010227873
0.010230526
0.010232623
0.010234179
0.010235211
0.01023573
0.010235744
0.010235256
0.010234269
0.010232795
0.010230851
0.010228452
0.010225611
0.010222334
0.010218619
0.010214454
0.010209826
0.010204722
0.010199123
0.010192997
0.010186295
0.010178956
0.010170925
0.010162125
0.010152446
0.010141738
0.010129805
0.010116425
0.010101413
0.010084642
0.010066458
0.010049009
0.010036308
0.010027017
0.010020311
0.010015181
0.010010611
0.010007325
0.010008101
0.010006266
0.02356089
0.018442372
0.013685396
0.012118055
0.011204812
0.010863721
0.010552649
0.010419709
0.010303845
0.010236097
0.010184221
0.010148613
0.010123491
0.010106585
0.010095902
0.01009016
0.010088501
0.010088841
0.010092157
0.010097562
0.010104366
0.010112323
0.010121168
0.010130609
0.010140416
0.010150379
0.010160325
0.010170098
0.010179558
0.010188595
0.010197118
0.010205056
0.010212348
0.010218947
0.01022483
0.010229985
0.010234419
0.010238147
0.010241192
0.010243584
0.010245355
0.010246538
0.010247165
0.010247262
0.010246856
0.010245966
0.010244606
0.010242784
0.010240503
0.010237775
0.010234612
0.010231031
0.010227045
0.010222661
0.010217876
0.01021268
0.010207055
0.010200985
0.010194451
0.010187422
0.010179848
0.010171669
0.010162827
0.01015325
0.010142836
0.010131447
0.010118898
0.010104957
0.010089446
0.010072294
0.010053728
0.010038517
0.010027385
0.010019441
0.010013839
0.010009652
0.010006156
0.010003605
0.010003419
0.010000896
0.022141132
0.018442811
0.013269196
0.011892222
0.011067451
0.010771425
0.010493425
0.010376937
0.01027605
0.010217187
0.010173481
0.010144293
0.010124773
0.010112725
0.010106335
0.010104245
0.010105507
0.010109657
0.010115753
0.010123423
0.010132318
0.010142072
0.010152384
0.010162985
0.010173645
0.010184158
0.010194358
0.0102041
0.010213262
0.010221751
0.010229498
0.010236458
0.010242599
0.010247904
0.010252375
0.010256028
0.010258891
0.010261002
0.010262405
0.010263146
0.010263271
0.010262827
0.010261854
0.01026039
0.010258466
0.010256107
0.010253329
0.010250143
0.010246551
0.01024256
0.01023818
0.010233423
0.010228301
0.01022282
0.010216978
0.010210763
0.010204155
0.010197134
0.010189678
0.010181756
0.010173322
0.010164314
0.010154671
0.010144326
0.010133184
0.010121116
0.010107958
0.010093481
0.010077475
0.010060118
0.01004228
0.010028897
0.010019256
0.010012599
0.010008079
0.01000478
0.010002234
0.010000559
0.010000053
0.0099972201
0.020870214
0.018273852
0.012883093
0.011689763
0.010947348
0.010691401
0.010445317
0.010343586
0.010257187
0.010207049
0.010171385
0.010148665
0.010134785
0.010127644
0.010125591
0.010127396
0.010132149
0.01013912
0.010147807
0.010157716
0.010168437
0.010179635
0.010191016
0.010202318
0.01021332
0.010223829
0.010233698
0.010242809
0.01025107
0.010258421
0.010264827
0.010270277
0.010274777
0.010278345
0.010281011
0.010282818
0.010283819
0.010284069
0.010283628
0.010282556
0.010280909
0.010278741
0.0102761
0.010273027
0.010269556
0.010265713
0.010261516
0.010256974
0.010252089
0.010246861
0.010241293
0.010235392
0.010229166
0.01022262
0.010215752
0.010208548
0.010200987
0.010193043
0.010184691
0.010175902
0.010166631
0.010156817
0.010146395
0.010135299
0.010123445
0.010110712
0.010096954
0.010081986
0.010065565
0.010047913
0.010031936
0.010020226
0.010011948
0.010006484
0.01000302
0.010000576
0.0099988064
0.0099980625
0.0099979132
0.0099951153
0.019736854
0.017824591
0.012535648
0.011509914
0.010844991
0.010624179
0.010408602
0.010320553
0.010248033
0.010206642
0.010178947
0.010162768
0.010154575
0.010152378
0.010154646
0.010160214
0.01016822
0.010178004
0.010188991
0.010200721
0.010212805
0.010224906
0.010236743
0.010248074
0.010258706
0.01026848
0.010277287
0.010285052
0.010291732
0.010297309
0.010301795
0.010305219
0.010307625
0.010309067
0.010309603
0.0103093
0.010308226
0.010306453
0.010304049
0.01030108
0.010297609
0.010293691
0.010289375
0.010284702
0.010279706
0.010274411
0.010268834
0.010262981
0.010256851
0.010250438
0.010243737
0.010236748
0.010229472
0.010221912
0.010214063
0.010205914
0.010197442
0.010188616
0.010179407
0.010169784
0.010159708
0.010149119
0.01013795
0.010126132
0.01011359
0.010100217
0.010085871
0.010070431
0.010053828
0.010036389
0.010022708
0.010012536
0.010005487
0.010001094
0.0099986254
0.0099970224
0.009995871
0.0099959527
0.0099966656
0.0099940596
0.018723386
0.01701383
0.012225236
0.011351744
0.010760091
0.010570121
0.010383945
0.010308784
0.010249707
0.010217181
0.01019743
0.010187848
0.010185343
0.010188035
0.010194494
0.010203619
0.010214568
0.010226683
0.010239425
0.010252333
0.010265034
0.010277218
0.010288641
0.010299107
0.010308474
0.010316646
0.010323569
0.010329228
0.010333639
0.01033684
0.010338886
0.01033985
0.010339807
0.010338841
0.010337033
0.010334463
0.01033121
0.010327351
0.010322956
0.010318093
0.010312821
0.010307192
0.010301254
0.010295044
0.01028859
0.010281916
0.010275032
0.010267941
0.01026064
0.010253116
0.010245357
0.010237352
0.010229096
0.010220587
0.010211818
0.010202779
0.010193446
0.010183788
0.010173769
0.010163355
0.010152511
0.010141186
0.010129309
0.010116804
0.010103605
0.010089626
0.010074734
0.010058824
0.010042147
0.01002636
0.010014555
0.010005838
0.0099998945
0.0099964317
0.0099948469
0.0099940608
0.0099934827
0.0099942061
0.0099959721
0.0099943493
0.017817392
0.01607507
0.011954555
0.011215229
0.010692244
0.010530262
0.010372434
0.010309781
0.010263702
0.010240175
0.010228311
0.010225287
0.010228337
0.010235683
0.010245971
0.010258145
0.010271387
0.01028506
0.010298646
0.010311723
0.010323969
0.010335133
0.010345043
0.010353583
0.010360689
0.010366347
0.010370577
0.010373432
0.010374986
0.010375327
0.010374552
0.010372764
0.010370064
0.010366551
0.010362317
0.010357448
0.010352024
0.010346117
0.010339796
0.010333118
0.010326138
0.010318901
0.010311445
0.010303802
0.010295996
0.010288042
0.01027995
0.010271717
0.010263336
0.01025479
0.010246058
0.010237123
0.01022797
0.010218587
0.010208967
0.010199099
0.010188963
0.010178527
0.010167752
0.010156598
0.010145031
0.010133008
0.010120466
0.010107321
0.0100935
0.010078945
0.010063576
0.010047347
0.010030731
0.010017549
0.010007466
0.010000101
0.0099951729
0.0099925136
0.0099916537
0.009991597
0.0099916567
0.0099930123
0.0099956847
0.0099962107
0.017008024
0.015308682
0.011724255
0.011100743
0.010642324
0.010506049
0.010375634
0.01032528
0.010291772
0.010277299
0.01027316
0.010276459
0.010284669
0.010296096
0.010309448
0.010323722
0.01033814
0.010352117
0.010365211
0.010377086
0.010387516
0.010396358
0.010403545
0.010409068
0.010412962
0.010415298
0.010416172
0.010415695
0.010413991
0.010411185
0.0104074
0.010402753
0.010397355
0.010391308
0.010384705
0.010377625
0.01037014
0.010362315
0.010354205
0.010345859
0.010337318
0.010328617
0.010319786
0.010310848
0.010301819
0.01029271
0.010283524
0.010274257
0.010264896
0.010255423
0.010245812
0.010236037
0.010226073
0.010215901
0.010205508
0.010194879
0.010184
0.010172843
0.010161368
0.01014953
0.010137289
0.010124611
0.010111444
0.010097711
0.010083321
0.010068219
0.01005241
0.010036127
0.010021098
0.01000984
0.010001364
0.0099952579
0.0099912879
0.0099893425
0.0099890473
0.0099895603
0.0099902604
0.0099921768
0.0099955803
0.0099970212
0.01628548
0.014623495
0.011529903
0.011008932
0.010611406
0.010499309
0.010395301
0.010357302
0.010335905
0.010330346
0.010333494
0.01034247
0.010354935
0.010369283
0.010384314
0.010399119
0.010413031
0.010425589
0.010436493
0.010445555
0.010452694
0.010457907
0.010461254
0.010462835
0.01046278
0.010461232
0.010458343
0.010454268
0.010449155
0.010443144
0.010436366
0.010428937
0.010420962
0.010412535
0.010403735
0.01039463
0.010385279
0.01037573
0.010366025
0.010356198
0.010346279
0.01033629
0.01032625
0.010316172
0.010306066
0.010295935
0.010285778
0.010275589
0.010265353
0.010255049
0.01024465
0.010234123
0.010223437
0.010212563
0.010201477
0.010190163
0.010178605
0.010166782
0.010154662
0.010142197
0.01012934
0.010116052
0.010102297
0.010088019
0.010073126
0.010057556
0.01004143
0.010025372
0.010012811
0.010003215
0.0099961545
0.0099912059
0.0099881502
0.009986868
0.0099870104
0.0099878911
0.009989118
0.0099916272
0.0099953484
0.0099981404
0.015642473
0.014031604
0.011370411
0.010940691
0.01060066
0.01051245
0.010433758
0.010408252
0.010398268
0.010400955
0.010410298
0.010423518
0.010438494
0.010453774
0.01046834
0.010481487
0.010492755
0.01050189
0.010508796
0.010513476
0.010516014
0.010516546
0.010515246
0.010512303
0.01050791
0.010502255
0.010495517
0.010487861
0.01047944
0.010470386
0.010460819
0.010450839
0.010440536
0.010429983
0.010419243
0.010408365
0.010397392
0.010386355
0.010375279
0.010364184
0.010353087
0.010341997
0.010330923
0.010319868
0.010308833
0.010297818
0.010286816
0.010275817
0.010264807
0.010253764
0.010242661
0.010231464
0.010220137
0.010208644
0.01019695
0.01018503
0.010172863
0.010160433
0.010147716
0.010134677
0.010121265
0.010107425
0.01009312
0.010078324
0.010062989
0.010047049
0.010030806
0.010016537
0.010005722
0.0099976027
0.0099917552
0.0099878319
0.0099856264
0.0099849703
0.0099854831
0.0099866001
0.0099882129
0.0099912871
0.0099952934
0.0099986532
0.015072896
0.013524123
0.011247252
0.010898881
0.010612028
0.010548916
0.010493972
0.010480581
0.010480504
0.010489666
0.010502955
0.010517853
0.010532571
0.01054597
0.010557349
0.01056632
0.010572717
0.010576539
0.010577915
0.010577026
0.010574096
0.010569367
0.010563079
0.010555467
0.010546746
0.010537112
0.010526737
0.010515774
0.010504352
0.010492585
0.010480565
0.010468372
0.010456068
0.010443705
0.010431325
0.010418958
0.010406629
0.010394352
0.010382138
0.010369992
0.010357918
0.010345915
0.010333979
0.010322107
0.010310293
0.010298528
0.010286802
0.010275104
0.010263417
0.010251721
0.010239991
0.010228194
0.010216296
0.010204255
0.010192031
0.010179586
0.010166889
0.010153919
0.010140657
0.010127085
0.010113166
0.010098843
0.010084051
0.010068758
0.01005301
0.01003697
0.010021199
0.010009109
0.0099997991
0.0099929288
0.0099881051
0.009985051
0.009983587
0.0099834965
0.0099843489
0.0099856585
0.0099875549
0.0099910577
0.0099953882
0.0099990697
0.014575071
0.013093557
0.011162524
0.010888354
0.010649619
0.010612456
0.01057847
0.010575323
0.010582121
0.010594388
0.010607983
0.010620887
0.010631834
0.010640158
0.010645587
0.010648098
0.010647831
0.01064502
0.01063996
0.010632957
0.010624308
0.010614296
0.010603175
0.010591173
0.010578488
0.010565287
0.010551716
0.010537892
0.010523913
0.01050986
0.010495796
0.010481772
0.010467828
0.01045399
0.010440279
0.010426709
0.010413286
0.01040001
0.010386881
0.01037389
0.01036103
0.01034829
0.010335658
0.010323121
0.010310667
0.010298282
0.010285951
0.010273659
0.010261389
0.010249122
0.010236835
0.0102245
0.010212085
0.010199552
0.010186859
0.010173961
0.010160816
0.010147387
0.01013365
0.010119588
0.010105189
0.010090426
0.010075242
0.010059554
0.010043359
0.010027154
0.010013458
0.010002904
0.0099949259
0.009989116
0.0099851552
0.0099828193
0.0099819537
0.0099823209
0.0099834802
0.0099850154
0.0099871772
0.0099909094
0.0099954344
0.0099991995
0.014154028
0.012738289
0.011119225
0.010913698
0.010740466
0.010705143
0.010687137
0.010690009
0.010698743
0.010709238
0.010718536
0.010725332
0.010729034
0.010729509
0.010726899
0.010721495
0.010713655
0.010703754
0.010692159
0.010679205
0.010665192
0.010650376
0.010634977
0.010619176
0.010603126
0.01058695
0.010570746
0.010554594
0.010538555
0.010522674
0.010506988
0.010491519
0.010476283
0.010461289
0.010446539
0.010432029
0.010417752
0.010403699
0.010389855
0.010376204
0.01036273
0.010349413
0.010336233
0.010323172
0.010310209
0.010297326
0.010284504
0.010271723
0.010258964
0.010246209
0.010233434
0.010220618
0.010207732
0.010194746
0.010181622
0.010168317
0.010154788
0.010140985
0.010126866
0.010112396
0.010097558
0.010082348
0.010066779
0.010050875
0.01003473
0.010018952
0.010007083
0.0099978514
0.0099909769
0.0099860654
0.0099828367
0.0099810986
0.0099806988
0.0099813918
0.0099827814
0.0099845597
0.009987034
0.0099909439
0.0099955572
0.0099993298
0.013820812
0.01245923
0.011121487
0.010973522
0.010847191
0.01082465
0.010814754
0.010817164
0.010821586
0.010824917
0.010825464
0.010822722
0.010816721
0.010807756
0.010796243
0.010782632
0.010767353
0.010750795
0.010733294
0.010715135
0.010696554
0.010677742
0.010658852
0.010640004
0.010621291
0.010602785
0.010584541
0.010566598
0.010548982
0.010531711
0.010514792
0.010498227
0.010482015
0.010466146
0.010450609
0.010435388
0.010420466
0.010405823
0.010391437
0.010377285
0.010363344
0.010349588
0.010335991
0.01032253
0.010309178
0.010295912
0.010282708
0.010269542
0.010256392
0.010243236
0.010230053
0.010216821
0.010203515
0.01019011
0.010176578
0.010162886
0.010148995
0.010134862
0.01012044
0.010105678
0.010090529
0.010074953
0.010058943
0.010042596
0.010026415
0.010012603
0.010001955
0.0099938386
0.0099878564
0.0099836788
0.009981055
0.0099798114
0.0099797806
0.0099807033
0.0099822393
0.009984212
0.0099869607
0.0099910073
0.0099956454
0.009999402
0.013598928
0.01225825
0.01117163
0.011073293
0.01098134
0.010960698
0.010950031
0.01094491
0.010939136
0.010930949
0.010919779
0.010905749
0.010889271
0.010870823
0.010850881
0.010829869
0.010808148
0.010786015
0.010763707
0.01074141
0.010719269
0.010697392
0.010675859
0.010654728
0.010634038
0.010613816
0.010594075
0.010574822
0.010556056
0.010537769
0.010519952
0.010502588
0.01048566
0.01046915
0.010453033
0.010437288
0.010421888
0.010406807
0.010392019
0.010377495
0.010363206
0.010349125
0.01033522
0.010321464
0.010307827
0.01029428
0.010280796
0.010267348
0.010253908
0.010240451
0.010226953
0.010213389
0.010199736
0.01018597
0.010172067
0.010158003
0.010143749
0.010129275
0.010114547
0.010099526
0.010084171
0.010068441
0.010052322
0.010035927
0.010019948
0.010007639
0.0099980169
0.0099907754
0.0099855022
0.0099818993
0.0099797414
0.0099788685
0.0099791078
0.0099802035
0.0099818436
0.0099839707
0.0099869118
0.0099910233
0.0099956535
0.0099993156
0.013435606
0.012135396
0.011271346
0.011199344
0.011125679
0.011099401
0.011078726
0.011060208
0.011040416
0.011018733
0.01099523
0.010970267
0.01094428
0.010917672
0.010890782
0.010863884
0.010837187
0.01081085
0.010784987
0.010759678
0.010734977
0.010710918
0.010687517
0.010664782
0.010642708
0.010621285
0.010600498
0.010580329
0.010560756
0.010541754
0.0105233
0.010505366
0.010487926
0.010470951
0.010454413
0.010438282
0.010422529
0.010407123
0.010392034
0.010377231
0.010362683
0.010348358
0.010334226
0.010320255
0.010306414
0.01029267
0.010278994
0.010265354
0.01025172
0.010238064
0.010224355
0.010210566
0.010196669
0.010182639
0.01016845
0.010154078
0.010139498
0.010124686
0.010109619
0.010094272
0.01007862
0.010062648
0.010046389
0.010030125
0.010015218
0.010003913
0.009995123
0.0099885606
0.0099838427
0.0099806876
0.0099788801
0.0099782555
0.0099786423
0.0099798435
0.0099815558
0.0099837917
0.0099868176
0.0099908602
0.0099953922
0.009999083
0.013363804
0.012089119
0.011421753
0.011334793
0.011263901
0.011222625
0.011186276
0.01115196
0.011117875
0.011083753
0.011049689
0.011015891
0.010982567
0.010949888
0.010917981
0.010886931
0.010856791
0.010827587
0.010799327
0.010772005
0.010745605
0.010720103
0.01069547
0.010671674
0.010648682
0.01062646
0.010604972
0.010584183
0.010564058
0.010544563
0.010525663
0.010507325
0.010489515
0.010472201
0.010455349
0.010438928
0.010422904
0.010407247
0.010391922
0.010376899
0.010362146
0.010347629
0.010333318
0.01031918
0.010305183
0.010291295
0.010277484
0.010263719
0.010249966
0.010236194
0.010222371
0.010208466
0.010194446
0.010180282
0.010165941
0.010151396
0.010136617
0.010121578
0.010106253
0.010090622
0.010074669
0.010058404
0.010041928
0.010025727
0.010011928
0.010001303
0.0099931312
0.0099870672
0.0099827604
0.0099799407
0.0099784121
0.009977943
0.0099784516
0.0099796637
0.0099814348
0.0099837365
0.0099867524
0.0099905944
0.0099948848
0.0099986639
0.013354863
0.012061622
0.011561414
0.011455806
0.011373694
0.011315138
0.011263073
0.011215108
0.011169702
0.011126355
0.011084839
0.011045037
0.011006875
0.010970285
0.010935203
0.010901563
0.010869297
0.010838337
0.010808618
0.010780074
0.010752643
0.010726263
0.010700878
0.010676433
0.010652874
0.010630152
0.010608221
0.010587033
0.010566548
0.010546724
0.010527521
0.010508902
0.010490829
0.010473268
0.010456182
0.010439539
0.010423305
0.010407446
0.010391931
0.010376726
0.0103618
0.01034712
0.010332656
0.010318375
0.010304246
0.010290238
0.010276319
0.010262458
0.010248624
0.010234784
0.010220907
0.010206961
0.010192912
0.010178728
0.010164375
0.01014982
0.010135028
0.010119965
0.010104597
0.01008889
0.01007282
0.010056388
0.010039717
0.010023424
0.010010163
0.009999894
0.0099920465
0.0099862634
0.0099822039
0.0099795958
0.0099782283
0.0099778219
0.0099784207
0.0099796749
0.0099815115
0.0099838904
0.0099868873
0.0099905247
0.0099945499
0.0099983629
0.013414593
0.012080641
0.011661089
0.011539144
0.011444429
0.011372169
0.011309035
0.011252191
0.011199806
0.011150994
0.011105188
0.011062008
0.011021166
0.010982436
0.010945632
0.010910593
0.010877183
0.010845278
0.010814771
0.010785565
0.010757571
0.010730709
0.010704906
0.010680093
0.01065621
0.010633197
0.010611
0.01058957
0.01056886
0.010548824
0.010529421
0.01051061
0.010492354
0.010474615
0.010457357
0.010440545
0.010424146
0.010408125
0.010392451
0.010377091
0.010362012
0.010347185
0.010332577
0.010318157
0.010303896
0.010289762
0.010275726
0.010261757
0.010247826
0.010233903
0.010219957
0.010205959
0.010191879
0.010177685
0.010163348
0.010148837
0.010134119
0.010119163
0.010103937
0.010088408
0.01007255
0.010056358
0.010039932
0.010023803
0.0100103
0.0099999301
0.0099920016
0.0099861785
0.0099821127
0.0099795268
0.0099782082
0.0099778417
0.0099784137
0.0099796893
0.0099815811
0.0099840301
0.0099870201
0.0099904961
0.0099943134
0.0099981677
0.013511483
0.012124275
0.011710196
0.011579392
0.011476516
0.011398101
0.011330164
0.011269816
0.011214786
0.01116398
0.011116648
0.011072286
0.011030517
0.010991048
0.010953646
0.010918115
0.010884292
0.010852035
0.010821221
0.010791742
0.010763501
0.010736412
0.010710397
0.010685383
0.010661307
0.010638107
0.010615728
0.010594118
0.010573229
0.010553016
0.010533437
0.010514449
0.010496015
0.010478098
0.010460661
0.010443669
0.010427089
0.010410887
0.01039503
0.010379487
0.010364225
0.010349214
0.010334423
0.01031982
0.010305375
0.010291059
0.010276841
0.010262692
0.010248582
0.010234481
0.01022036
0.010206191
0.010191942
0.010177584
0.010163089
0.010148424
0.01013356
0.010118465
0.010103107
0.010087456
0.010071485
0.010055194
0.010038703
0.010022628
0.010009648
0.009999513
0.0099917543
0.0099860331
0.0099820378
0.0099794955
0.0099781768
0.0099777862
0.0099783946
0.0099796536
0.0099815652
0.0099840336
0.0099870112
0.0099904254
0.0099941583
0.0099980609
92.160076
452.81168
141.32862
12.296313
0.27158973
0.021630355
0.020658884
0.020052394
0.019365823
0.018183431
0.016957191
0.015889364
0.01503661
0.014472145
0.014072179
0.013697836
0.013329923
0.012999368
0.012720166
0.012486538
0.012288164
0.012117194
0.011968389
0.011837921
0.011722748
0.011620384
0.011528836
0.011446511
0.01137216
0.011304791