/*--------------------------------*- C++ -*----------------------------------*\
| =========                 |                                                 |
| \\      /  F ield         | OpenFOAM: The Open Source CFD Toolbox           |
|  \\    /   O peration     | Version:  2512                                  |
|   \\  /    A nd           | Website:  www.openfoam.com                      |
|    \\/     M anipulation  |                                                 |
\*---------------------------------------------------------------------------*/
FoamFile
{
    version     2.0;
    format      ascii;
    arch        "LSB;label=32;scalar=64";
    class       volScalarField;
    location    "0.142";
    object      Ma;
}
// * * * * * * * * * * * * * * * * * * * * * * * * * * * * * * * * * * * * * //

dimensions      [0 0 0 0 0 0 0];

internalField   nonuniform List<scalar> 
16000
(
0.62589722
0.74374283
0.69841923
0.72359495
0.70814383
0.71551181
0.70963373
0.71135467
0.70866668
0.70831682
0.70669802
0.70561145
0.70421792
0.70286722
0.70142692
0.69994
0.69839285
0.69678808
0.69512435
0.69340134
0.69161872
0.68977642
0.68787455
0.68591355
0.68389411
0.68181728
0.67968444
0.67749737
0.67525824
0.67296966
0.67063463
0.66825662
0.66583951
0.66338762
0.66090567
0.65839876
0.65587235
0.65333218
0.65078426
0.64823478
0.64569005
0.64315643
0.64064023
0.63814769
0.63568484
0.63325743
0.63087091
0.62853032
0.62624025
0.62400479
0.62182749
0.61971135
0.61765877
0.6156716
0.61375107
0.61189785
0.61011205
0.60839324
0.60674045
0.60515207
0.60362585
0.60215921
0.60074911
0.59939171
0.59808228
0.59681496
0.59558288
0.59437853
0.59319441
0.5920235
0.59085868
0.58969139
0.58851115
0.5873076
0.58607522
0.58481401
0.58348344
0.58232882
0.5803897
0.58004834
0.6303696
0.74895758
0.7017154
0.72826074
0.71196102
0.71981871
0.71347109
0.71532436
0.71244574
0.71202608
0.71031928
0.70911525
0.70763098
0.70616461
0.70461555
0.70301116
0.70134426
0.69961532
0.69782378
0.69596935
0.69405195
0.69207177
0.6900293
0.68792534
0.68576102
0.6835379
0.68125791
0.67892342
0.67653726
0.67410269
0.67162348
0.66910384
0.66654843
0.66396236
0.66135115
0.65872067
0.65607711
0.65342693
0.65077675
0.64813331
0.64550336
0.64289361
0.64031058
0.6377606
0.63524966
0.63278335
0.63036682
0.62800471
0.62570109
0.62345946
0.62128271
0.61917311
0.61713234
0.61516145
0.61326093
0.61143073
0.60967022
0.60797832
0.60635346
0.60479353
0.60329581
0.60185727
0.60047455
0.59914362
0.59785961
0.59661664
0.59540777
0.59422529
0.59306147
0.59190904
0.59076086
0.58960857
0.58844162
0.58724899
0.58602336
0.58476161
0.58347256
0.58217012
0.58056377
0.57974622
0.6345759
0.75372883
0.70530144
0.73229234
0.71556382
0.72350869
0.71701604
0.71874537
0.71581941
0.71523689
0.71346458
0.71211975
0.71053139
0.70893676
0.70726246
0.70552605
0.7037233
0.70185434
0.69991887
0.69791691
0.69584873
0.6937149
0.69151635
0.68925437
0.68693066
0.68454737
0.68210712
0.67961301
0.67706866
0.6744782
0.67184626
0.669178
0.66647903
0.66375541
0.6610136
0.65826038
0.65550278
0.65274802
0.65000339
0.64727617
0.64457353
0.64190243
0.6392695
0.63668099
0.63414268
0.6316598
0.62923697
0.62687819
0.62458679
0.62236544
0.62021611
0.61814014
0.61613824
0.61421052
0.61235654
0.61057534
0.60886548
0.6072251
0.60565192
0.60414323
0.60269581
0.60130615
0.59997053
0.59868464
0.59744349
0.59624115
0.59507064
0.59392422
0.59279401
0.59167259
0.59055287
0.5894268
0.58828398
0.58711274
0.58590512
0.5846617
0.58338898
0.58204676
0.58059391
0.57956078
0.63838566
0.75806135
0.70833038
0.73575793
0.71867537
0.72673218
0.72007676
0.72167371
0.71868616
0.71792579
0.71607351
0.71457318
0.71286377
0.71112579
0.70930989
0.70742575
0.70547156
0.70344725
0.70135289
0.69918884
0.69695573
0.6946546
0.69228686
0.68985441
0.68735961
0.68480537
0.68219514
0.67953295
0.67682338
0.67407164
0.67128343
0.66846504
0.66562319
0.66276504
0.65989809
0.65703011
0.654169
0.65132272
0.64849917
0.64570605
0.64295079
0.6402404
0.63758139
0.63497969
0.63244059
0.62996864
0.62756767
0.62524076
0.62299022
0.62081762
0.61872382
0.61670903
0.61477282
0.61291422
0.61113175
0.60942348
0.60778709
0.6062199
0.60471894
0.6032809
0.60190205
0.60057846
0.59930604
0.5980803
0.59689613
0.5957476
0.5946278
0.59352898
0.59244314
0.59136277
0.59028087
0.58918975
0.58807916
0.58693686
0.58575529
0.58453705
0.58327863
0.58193957
0.58058306
0.57938397
0.64179923
0.76190009
0.71108526
0.73869626
0.72117244
0.72938183
0.72261852
0.72402009
0.72098996
0.72001737
0.71807607
0.71640273
0.71455424
0.71265786
0.71068372
0.70863616
0.70651465
0.70431917
0.70205008
0.69970807
0.69729426
0.69481023
0.69225808
0.6896405
0.68696077
0.68422279
0.68143115
0.67859106
0.67570839
0.67278964
0.66984186
0.66687267
0.66389009
0.66090252
0.65791859
0.65494707
0.65199669
0.64907609
0.6461936
0.64335716
0.64057418
0.63785144
0.63519501
0.63261014
0.63010127
0.62767196
0.62532487
0.62306185
0.6208839
0.61879124
0.61678341
0.61485928
0.61301716
0.6112549
0.60956989
0.60795922
0.60641964
0.60494771
0.60353974
0.60219187
0.60089992
0.59965958
0.59846647
0.59731592
0.59620278
0.59512118
0.59406433
0.59302459
0.59199394
0.59096479
0.5899303
0.58888318
0.58781337
0.58670858
0.5855621
0.58437554
0.58313734
0.58182637
0.58053075
0.57922845
0.64477961
0.76516961
0.71338251
0.74115598
0.72334841
0.73138925
0.72450746
0.72572024
0.72263956
0.72144782
0.71940679
0.71754994
0.71554632
0.71347853
0.71133051
0.70910354
0.70679772
0.70441335
0.70195124
0.69941271
0.69679961
0.69411442
0.69136025
0.68854094
0.68566103
0.68272581
0.67974132
0.6767143
0.67365223
0.67056317
0.66745579
0.6643392
0.66122287
0.65811649
0.65502982
0.65197254
0.64895409
0.6459835
0.64306927
0.64021921
0.63744036
0.63473882
0.63211977
0.62958737
0.62714476
0.62479407
0.62253648
0.62037224
0.61830077
0.61632073
0.61443014
0.61262642
0.61090656
0.60926715
0.6077045
0.6062147
0.60479367
0.60343724
0.60214112
0.60090097
0.59971224
0.59857033
0.59747067
0.59640849
0.59537866
0.59437546
0.59339231
0.59242175
0.59145582
0.59048696
0.58950845
0.58851342
0.58749207
0.58643265
0.58532909
0.58417982
0.58296954
0.58170021
0.58045578
0.57907618
0.64731442
0.76786186
0.71523872
0.74311372
0.72505742
0.73273256
0.72592231
0.72675669
0.72369391
0.72220519
0.72004605
0.71799369
0.71581382
0.71355512
0.71121065
0.70878077
0.70626623
0.70366812
0.70098813
0.69822855
0.69539239
0.69248341
0.68950615
0.68646598
0.68336911
0.68022261
0.67703434
0.67381295
0.67056778
0.66730878
0.66404639
0.66079135
0.6575546
0.65434707
0.65117949
0.64806222
0.64500506
0.64201707
0.63910644
0.63628035
0.63354488
0.63090495
0.62836428
0.62592539
0.62358966
0.6213574
0.61922787
0.61719947
0.6152698
0.6134358
0.61169385
0.61003991
0.60846962
0.6069784
0.60556153
0.60421421
0.60293165
0.60170905
0.60054168
0.59942481
0.59835368
0.59732351
0.59632965
0.59536733
0.59443151
0.59351671
0.59261663
0.5917241
0.59083135
0.58993087
0.58901612
0.58808051
0.58711476
0.58610818
0.58505481
0.58394837
0.58277398
0.58155721
0.58036
0.57892413
0.64944119
0.77000327
0.71668645
0.74460681
0.72634855
0.7337261
0.72679596
0.72754934
0.72403587
0.722299
0.71998721
0.71771242
0.71532105
0.71283907
0.71026478
0.70759897
0.70484318
0.70199958
0.69907102
0.69606115
0.69297449
0.68981648
0.6865935
0.68331294
0.67998309
0.67661323
0.67321347
0.66979469
0.66636841
0.66294662
0.65954162
0.6561658
0.65283144
0.64955044
0.64633417
0.64319321
0.64013715
0.63717447
0.63431238
0.63155672
0.62891193
0.62638104
0.6239657
0.62166625
0.61948182
0.61741046
0.61544927
0.61359455
0.61184197
0.61018668
0.60862347
0.60714688
0.60575133
0.60443119
0.60318087
0.60199487
0.60086785
0.59979458
0.59877004
0.59778931
0.59684753
0.59593991
0.59506181
0.59420859
0.59337541
0.59255706
0.59174767
0.59094043
0.59012784
0.58930255
0.58845815
0.58758824
0.58668434
0.58573731
0.58474041
0.58368187
0.58255121
0.58139619
0.58024481
0.57876734
0.6512198
0.77161376
0.71766331
0.74562131
0.72694251
0.7336434
0.72684802
0.72679583
0.72373594
0.72166987
0.71915603
0.71662314
0.71397838
0.71123426
0.70839152
0.70545195
0.70241812
0.69929357
0.6960827
0.692791
0.68942499
0.68599236
0.6825019
0.67896354
0.67538824
0.67178793
0.66817539
0.66456404
0.66096777
0.65740068
0.65387687
0.65041011
0.64701365
0.64369989
0.64048014
0.63736446
0.63436143
0.63147805
0.62871963
0.62608982
0.6235906
0.62122238
0.61898409
0.61687338
0.61488672
0.61301965
0.61126692
0.6096227
0.60808073
0.60663447
0.60527727
0.60400245
0.60280343
0.60167375
0.60060721
0.59959784
0.59863995
0.59772815
0.59685728
0.59602243
0.59521881
0.59444176
0.59368681
0.59294953
0.59222536
0.5915095
0.59079651
0.59008006
0.58935306
0.58860839
0.58783966
0.5870406
0.58620387
0.58532216
0.58438697
0.58338094
0.58230159
0.58121547
0.58010861
0.57860476
0.65263603
0.77265904
0.71809524
0.7458983
0.72681486
0.73311687
0.72638644
0.72588723
0.72260995
0.72019675
0.71743184
0.7146048
0.71166389
0.70861586
0.70546286
0.70220832
0.6988565
0.6954129
0.69188419
0.68827837
0.68460474
0.68087393
0.6770979
0.67328978
0.66946376
0.66563494
0.66181907
0.65803231
0.65429091
0.65061091
0.6470078
0.64349621
0.64008955
0.63679982
0.63363726
0.63061028
0.62772528
0.62498665
0.62239676
0.61995607
0.61766328
0.61551549
0.61350841
0.61163662
0.60989375
0.60827274
0.60676606
0.60536586
0.60406417
0.60285305
0.60172468
0.60067147
0.59968614
0.59876176
0.59789177
0.59707003
0.59629079
0.59554866
0.59483863
0.59415594
0.59349604
0.59285457
0.59222733
0.59161022
0.59099905
0.59038946
0.58977653
0.58915451
0.58851682
0.58785662
0.58716746
0.58644317
0.58567786
0.58486608
0.58399661
0.58304733
0.58202676
0.58101429
0.57994875
0.57843526
0.653625
0.77302821
0.71790857
0.7446603
0.7259454
0.73164654
0.72505621
0.72393225
0.72056574
0.71776995
0.71469621
0.71152954
0.70824293
0.70484231
0.70133135
0.69771576
0.69400224
0.69019913
0.68631629
0.68236514
0.67835872
0.67431154
0.67023948
0.6661596
0.66208987
0.65804888
0.65405552
0.65012856
0.64628624
0.64254591
0.63892359
0.63543361
0.63208831
0.62889779
0.62586978
0.62300953
0.62031987
0.6178013
0.61545213
0.61326878
0.61124598
0.60937708
0.60765431
0.60606911
0.60461237
0.60327464
0.60204637
0.60091807
0.59988048
0.59892463
0.59804197
0.59722442
0.59646438
0.59575477
0.59508905
0.59446117
0.59386558
0.59329717
0.59275122
0.59222335
0.5917094
0.59120539
0.59070757
0.5902122
0.58971557
0.58921378
0.5887025
0.58817661
0.58763017
0.58705667
0.58644953
0.58580268
0.58511188
0.58437323
0.58357215
0.58268372
0.5817296
0.58079354
0.57976326
0.57825911
0.65410544
0.77257846
0.71700043
0.74283376
0.7245295
0.72931299
0.7227893
0.72106948
0.71746955
0.71425415
0.71080651
0.7072448
0.70355544
0.6997464
0.69582373
0.69179636
0.68767466
0.68347097
0.67919956
0.67487657
0.67051984
0.66614876
0.66178398
0.65744706
0.65316007
0.64894513
0.64482391
0.64081711
0.63694396
0.63322172
0.62966529
0.62628687
0.62309577
0.62009826
0.61729767
0.61469442
0.61228633
0.61006885
0.60803541
0.60617779
0.60448647
0.60295099
0.6015603
0.60030297
0.59916756
0.59814274
0.59721748
0.59638122
0.5956239
0.5949361
0.59430902
0.59373452
0.59320512
0.59271396
0.59225482
0.59182204
0.59141052
0.59101561
0.59063311
0.59025911
0.58988999
0.58952231
0.58915277
0.58877815
0.5883952
0.58800054
0.58759044
0.58716049
0.58670547
0.58621923
0.58569506
0.5851271
0.58451271
0.58384877
0.58311738
0.58229392
0.58141387
0.58055495
0.57955102
0.57808167
0.6540265
0.77124143
0.71524725
0.74020013
0.72216817
0.72594485
0.71947997
0.71707981
0.71317674
0.70948928
0.70559374
0.70156955
0.69741074
0.69312916
0.68873492
0.68424165
0.67966499
0.67502296
0.67033575
0.66562556
0.66091626
0.65623304
0.65160191
0.64704914
0.64260067
0.63828141
0.63411461
0.6301212
0.62631925
0.62272354
0.61934528
0.61619194
0.61326732
0.61057166
0.60810198
0.60585241
0.60381465
0.60197844
0.600332
0.59886249
0.5975564
0.59639994
0.59537931
0.59448098
0.59369187
0.59299949
0.59239207
0.59185865
0.59138903
0.59097388
0.59060466
0.59027363
0.58997382
0.58969893
0.58944335
0.58920206
0.58897058
0.58874493
0.58852153
0.58829711
0.58806863
0.58783327
0.5875883
0.58733101
0.58705866
0.58676841
0.58645711
0.58612111
0.58575594
0.58535589
0.58491423
0.58442548
0.58388817
0.58329883
0.58263713
0.58188283
0.5810836
0.58029987
0.57931633
0.57789801
0.65336714
0.76891413
0.71258827
0.73650884
0.71878576
0.72144648
0.71495427
0.71183047
0.70750694
0.70327627
0.6988464
0.69427867
0.68957339
0.68474813
0.67981931
0.67480738
0.66973529
0.66462863
0.6595152
0.65442466
0.64938792
0.64443648
0.63960165
0.63491368
0.63040092
0.62608893
0.62199978
0.61815143
0.61455738
0.61122647
0.6081629
0.60536649
0.60283304
0.60055484
0.59852128
0.59671937
0.59513442
0.59375055
0.59255121
0.59151966
0.59063926
0.58989382
0.58926781
0.58874653
0.58831623
0.58796416
0.58767858
0.58744882
0.5872652
0.587119
0.58700243
0.58690855
0.58683119
0.58676493
0.58670497
0.58664711
0.58658767
0.58652343
0.58645153
0.58636941
0.58627467
0.58616516
0.58603874
0.58589325
0.58572647
0.58553607
0.5853195
0.58507385
0.58479539
0.58447892
0.58411799
0.58370771
0.58324695
0.58273055
0.58213745
0.58145647
0.58074349
0.58002914
0.57906065
0.57771294
0.65205472
0.76541123
0.70898374
0.73161623
0.71421465
0.71563076
0.70901096
0.70509288
0.70022308
0.69535578
0.69029161
0.68508727
0.67975146
0.67430993
0.66878826
0.66321629
0.65762662
0.65205445
0.64653683
0.64111191
0.63581788
0.63069186
0.62576873
0.62108003
0.61665285
0.61250915
0.60866519
0.6051313
0.60191198
0.59900619
0.59640793
0.59410691
0.59208929
0.59033852
0.5888361
0.58756227
0.58649667
0.58561886
0.58490877
0.58434703
0.58391522
0.58359607
0.58337354
0.58323288
0.58316065
0.5831447
0.58317412
0.58323917
0.58333121
0.58344262
0.5835667
0.58369761
0.58383026
0.58396027
0.58408381
0.58419762
0.5842989
0.58438524
0.58445457
0.58450503
0.58453493
0.58454277
0.584527
0.58448605
0.5844182
0.58432161
0.58419429
0.58403401
0.58383773
0.58360087
0.58331772
0.58298415
0.58259833
0.58215209
0.58162576
0.58102159
0.58039919
0.57974695
0.57878824
0.57753049
0.65002812
0.76048674
0.70452784
0.72534795
0.70827829
0.70828031
0.70138338
0.69657862
0.69101229
0.68539136
0.6795807
0.67364079
0.66759242
0.66147251
0.65531905
0.64917421
0.64308287
0.63709168
0.63124778
0.62559728
0.62018362
0.61504605
0.61021819
0.605727
0.60159209
0.59782541
0.59443145
0.59140771
0.58874546
0.58643073
0.58444532
0.58276788
0.58137491
0.58024169
0.57934302
0.57865392
0.57815013
0.57780846
0.57760712
0.57752584
0.57754599
0.57765061
0.5778244
0.57805362
0.57832607
0.57863096
0.5789588
0.57930131
0.57965128
0.58000252
0.58034968
0.58068819
0.5810142
0.58132443
0.58161614
0.58188704
0.58213522
0.58235911
0.5825574
0.58272895
0.58287277
0.58298795
0.58307357
0.58312858
0.58315178
0.58314182
0.58309721
0.58301627
0.58289655
0.58273425
0.58252485
0.58226518
0.58195171
0.58157244
0.58111092
0.58058544
0.58005608
0.57946212
0.57851131
0.57735264
0.64722529
0.75377238
0.69890456
0.71744768
0.70065821
0.69906188
0.69169555
0.68588216
0.67945645
0.67295207
0.66628214
0.65951627
0.65269237
0.64586287
0.63908228
0.63240853
0.62590055
0.61961642
0.613611
0.60793376
0.60262684
0.5977236
0.59324769
0.58921278
0.58562283
0.58247288
0.57975017
0.57743546
0.57550455
0.57392964
0.57268067
0.57172649
0.57103582
0.57057805
0.5703238
0.57024537
0.57031699
0.57051499
0.57081783
0.57120614
0.57166258
0.5721718
0.57272028
0.57329616
0.57388918
0.57449043
0.57509229
0.57568826
0.57627281
0.57684132
0.57738992
0.57791541
0.57841518
0.5788871
0.57932951
0.57974105
0.58012072
0.58046772
0.58078147
0.58106151
0.58130749
0.58151908
0.58169592
0.58183749
0.58194308
0.58201179
0.58204261
0.58203425
0.58198473
0.58189114
0.58175057
0.5815608
0.58131614
0.58100095
0.58060321
0.58015609
0.57971658
0.57918032
0.57824848
0.57715635
0.64353275
0.7447199
0.69166901
0.70748538
0.69091574
0.68750836
0.67944454
0.67248561
0.66503585
0.65751897
0.6498917
0.64223943
0.6346244
0.62712051
0.61980249
0.61274473
0.6060176
0.59968442
0.59379866
0.58840197
0.58352296
0.57917696
0.57536654
0.57208277
0.56930683
0.56701207
0.56516591
0.56373184
0.56267116
0.56194441
0.56151261
0.56133818
0.56138557
0.56162169
0.56201619
0.56254154
0.56317301
0.56388861
0.56466892
0.56549692
0.5663578
0.56723876
0.5681288
0.56901855
0.56990005
0.57076662
0.57161269
0.57243367
0.5732258
0.57398606
0.57471205
0.57540191
0.57605424
0.57666802
0.57724257
0.57777744
0.57827242
0.57872747
0.57914264
0.57951809
0.57985406
0.58015073
0.58040824
0.58062656
0.58080545
0.58094448
0.58104303
0.58110009
0.58111403
0.58108291
0.58100547
0.58088034
0.58069986
0.58044628
0.58011285
0.57974217
0.57938144
0.5788952
0.57799357
0.57698571
0.63870227
0.73311954
0.68229493
0.69489489
0.67846404
0.6730458
0.66401403
0.6557546
0.64712269
0.63848437
0.62984803
0.62132429
0.61300641
0.60499215
0.59737329
0.59023227
0.58363799
0.57764302
0.5722821
0.56757198
0.56351241
0.56008812
0.55727137
0.55502475
0.55330412
0.55206112
0.55124555
0.55080724
0.55069746
0.55086999
0.55128185
0.55189362
0.55266972
0.5535783
0.5545912
0.55568369
0.55683424
0.55802426
0.55923776
0.56046112
0.56168282
0.56289315
0.56408402
0.56524875
0.56638189
0.56747901
0.56853662
0.569552
0.57052309
0.57144839
0.57232689
0.57315795
0.5739413
0.5746769
0.57536495
0.57600583
0.57660003
0.57714816
0.57765084
0.57810876
0.57852266
0.57889317
0.57922088
0.57950618
0.57974929
0.57995022
0.58010868
0.58022389
0.58029454
0.58031961
0.58029918
0.58023227
0.58010998
0.57991518
0.57964741
0.57935212
0.57905847
0.57860956
0.57774502
0.57684154
0.63236077
0.72010614
0.67028412
0.67905261
0.6625648
0.65493727
0.64462141
0.63489338
0.62496378
0.61517787
0.60560747
0.5963933
0.58765541
0.57950373
0.57202841
0.56529685
0.55935145
0.5542098
0.54986651
0.54629637
0.54345827
0.54129937
0.53975921
0.53877328
0.53827607
0.53820345
0.53849436
0.53909196
0.53994433
0.54100473
0.54223164
0.54358854
0.54504364
0.5465695
0.54814259
0.5497429
0.55135352
0.55296026
0.55455132
0.55611693
0.55764914
0.55914148
0.56058883
0.56198716
0.56333341
0.56462532
0.56586132
0.56704039
0.56816201
0.56922607
0.57023274
0.57118251
0.57207605
0.57291418
0.57369789
0.57442822
0.57510629
0.57573323
0.57631019
0.57683829
0.57731866
0.57775234
0.57814025
0.57848319
0.57878177
0.57903641
0.57924712
0.57941335
0.57953423
0.57960949
0.57963993
0.5796242
0.57955301
0.57941291
0.57921139
0.57899157
0.57875629
0.57833099
0.57750737
0.57673468
0.62415247
0.70306195
0.65482305
0.65907424
0.64217235
0.63213231
0.62024514
0.60895502
0.5977702
0.5870285
0.57685994
0.56742013
0.5588282
0.55117247
0.54450512
0.53884354
0.53417345
0.53045405
0.52762413
0.52560836
0.52432317
0.52368174
0.52359803
0.52398969
0.52478002
0.52589918
0.52728461
0.52888116
0.53064078
0.53252203
0.53448951
0.53651321
0.5385679
0.54063251
0.54268959
0.54472476
0.54672634
0.54868488
0.55059285
0.55244438
0.55423492
0.55596112
0.55762055
0.55921165
0.56073347
0.56218567
0.56356835
0.56488198
0.56612737
0.56730554
0.56841773
0.56946531
0.57044976
0.57137264
0.57223556
0.57304014
0.57378798
0.57448067
0.57511976
0.57570676
0.57624311
0.57673015
0.5771691
0.57756107
0.57790703
0.5782077
0.57846339
0.57867388
0.57883885
0.57895871
0.57903423
0.57906302
0.57903592
0.57894504
0.57880641
0.57865888
0.57847894
0.57807887
0.57730238
0.57666003
0.61344724
0.68105583
0.63449429
0.63357236
0.61583293
0.60327431
0.58975075
0.57707971
0.56503051
0.5539134
0.54387212
0.53502907
0.52744855
0.5211463
0.516093
0.51222334
0.50944552
0.50765094
0.50672276
0.50654303
0.50699783
0.50798093
0.50939582
0.51115671
0.51318863
0.51542697
0.51781673
0.52031154
0.52287266
0.52546801
0.52807118
0.53066065
0.533219
0.53573226
0.53818939
0.54058176
0.54290275
0.54514742
0.54731222
0.54939475
0.55139354
0.55330791
0.55513781
0.55688371
0.55854651
0.56012742
0.56162796
0.56304981
0.56439485
0.56566505
0.56686247
0.56798923
0.56904745
0.57003928
0.57096682
0.57183215
0.57263727
0.57338413
0.57407461
0.57471052
0.57529352
0.57582523
0.57630709
0.57674045
0.57712654
0.57746632
0.57776036
0.57800886
0.57821217
0.57837125
0.5784865
0.57855426
0.57856603
0.57851938
0.57843645
0.57835019
0.57821976
0.57786279
0.57716635
0.5766106
0.59908607
0.65201168
0.60743542
0.60082545
0.58197414
0.56703205
0.55230465
0.53896927
0.5269828
0.51656766
0.50779445
0.50067744
0.49516171
0.49114313
0.48848232
0.4870203
0.4865914
0.48703325
0.48819366
0.48993477
0.49213497
0.49468915
0.49750804
0.50051681
0.50365348
0.50686722
0.51011671
0.51336863
0.51659637
0.51977887
0.52289964
0.52594594
0.52890811
0.53177898
0.53455343
0.53722799
0.53980053
0.54226999
0.5446362
0.54689968
0.54906149
0.55112316
0.55308654
0.55495377
0.55672718
0.55840926
0.56000259
0.56150984
0.56293371
0.56427691
0.56554216
0.56673212
0.56784943
0.56889668
0.56987636
0.5707909
0.57164262
0.57243374
0.5731664
0.57384263
0.57446431
0.57503322
0.57555101
0.57601921
0.57643921
0.57681212
0.57713874
0.57741973
0.57765607
0.57784912
0.5779988
0.57810082
0.5781482
0.57814317
0.57810959
0.5780709
0.57797497
0.57765952
0.5770586
0.57661069
0.57919544
0.61362337
0.57149259
0.55909982
0.53965578
0.5227538
0.50798873
0.49542316
0.48502003
0.47682063
0.47072111
0.46655631
0.46410988
0.46314411
0.46341895
0.46470708
0.46680261
0.4695254
0.47272198
0.47626425
0.48004707
0.48398527
0.48801068
0.49206925
0.49611858
0.50012572
0.50406535
0.50791828
0.51167025
0.51531086
0.51883284
0.52223137
0.52550357
0.52864807
0.53166472
0.5345543
0.53731832
0.53995883
0.54247834
0.54487964
0.54716579
0.54934
0.5514056
0.55336597
0.55522456
0.55698478
0.55865006
0.56022377
0.56170924
0.56310973
0.56442843
0.56566843
0.56683274
0.56792427
0.56894582
0.56990007
0.57078958
0.57161678
0.572384
0.57309345
0.57374717
0.57434709
0.57489502
0.57539261
0.57584135
0.57624248
0.57659697
0.57690588
0.57717065
0.5773927
0.57757159
0.57770326
0.57778338
0.57781814
0.57782998
0.5778306
0.57775965
0.57747988
0.57697571
0.57667477
0.55123619
0.56345572
0.52537835
0.50709997
0.48655049
0.47122183
0.45838879
0.44866224
0.44176738
0.43745684
0.4353773
0.43516151
0.43644975
0.43891557
0.44227549
0.44629219
0.45077214
0.45556078
0.46053671
0.46560584
0.47069614
0.47575312
0.48073609
0.4856151
0.49036854
0.49498123
0.49944296
0.50374728
0.50789066
0.51187176
0.51569092
0.51934969
0.5228506
0.52619681
0.52939202
0.53244024
0.53534573
0.53811288
0.54074618
0.54325013
0.54562922
0.5478879
0.55003056
0.55206152
0.55398498
0.55580506
0.55752575
0.55915096
0.56068445
0.56212986
0.56349073
0.56477045
0.56597229
0.56709939
0.56815477
0.56914128
0.57006165
0.57091849
0.57171427
0.57245131
0.57313181
0.5737578
0.57433123
0.57485384
0.57532722
0.57575268
0.5761314
0.57646472
0.57675422
0.57700116
0.57720479
0.57736193
0.57747122
0.57754152
0.57759193
0.57762443
0.57757897
0.57734846
0.57694686
0.57672679
0.51113452
0.49891651
0.46185339
0.44412556
0.42685935
0.41482263
0.40667429
0.40220199
0.40073706
0.40169032
0.40449035
0.4086512
0.41377292
0.41954008
0.4257102
0.43210088
0.4385772
0.44504097
0.45142181
0.45767018
0.4637521
0.469645
0.47533475
0.48081339
0.48607741
0.49112656
0.49596286
0.50058998
0.50501271
0.5092366
0.51326768
0.51711225
0.52077675
0.52426767
0.52759143
0.53075437
0.53376268
0.53662242
0.53933944
0.54191942
0.54436787
0.54669009
0.5488912
0.55097612
0.55294961
0.55481625
0.55658043
0.55824639
0.5598182
0.56129976
0.56269483
0.564007
0.56523973
0.56639631
0.56747989
0.56849347
0.56943988
0.57032185
0.57114194
0.5719026
0.57260609
0.57325458
0.57385009
0.57439447
0.57488938
0.57533627
0.57573651
0.5760916
0.57640311
0.57667198
0.57689743
0.57707747
0.57721298
0.57731328
0.57739259
0.57744636
0.57742213
0.57724441
0.57694945
0.57683487
0.45012099
0.41763701
0.38810421
0.37340593
0.36270995
0.35806824
0.35763973
0.36050767
0.36567511
0.37238562
0.38005719
0.3882695
0.39672566
0.40522152
0.41361965
0.4218299
0.42979517
0.43748113
0.44486918
0.45195135
0.45872684
0.46519963
0.47137677
0.47726723
0.4828811
0.48822906
0.49332197
0.49817068
0.50278579
0.50717763
0.51135612
0.51533079
0.51911074
0.52270465
0.52612078
0.52936701
0.53245081
0.5353793
0.53815925
0.54079712
0.54329904
0.54567087
0.54791819
0.55004633
0.5520604
0.55396524
0.55576552
0.55746568
0.55906999
0.5605825
0.56200711
0.56334754
0.56460736
0.56578997
0.56689859
0.5679363
0.56890602
0.56981054
0.57065252
0.57143443
0.57215865
0.57282739
0.57344276
0.57400668
0.57452091
0.57498704
0.57540662
0.57578126
0.57611243
0.5764009
0.57664626
0.57684779
0.57700764
0.57713359
0.57723433
0.57730242
0.57729883
0.57717817
0.57698108
0.57690844
0.35515556
0.32154217
0.30406664
0.29972746
0.30122185
0.30758564
0.31682293
0.32767778
0.33928003
0.35108425
0.36275841
0.37410937
0.3850313
0.39547243
0.40541396
0.41485678
0.42381329
0.43230223
0.44034548
0.44796621
0.4551876
0.46203223
0.46852168
0.4746763
0.48051518
0.48605615
0.49131579
0.49630951
0.50105162
0.50555544
0.50983333
0.51389683
0.51775668
0.5214229
0.52490488
0.52821143
0.53135078
0.53433071
0.53715853
0.53984114
0.54238507
0.54479649
0.54708126
0.54924495
0.55129283
0.55322994
0.55506108
0.55679081
0.5584235
0.55996329
0.56141418
0.56277993
0.56406418
0.56527038
0.56640182
0.5674616
0.5684527
0.56937794
0.57024003
0.57104148
0.57178471
0.57247199
0.57310544
0.57368704
0.57421864
0.57470195
0.57513866
0.5755304
0.57587857
0.57618402
0.57644695
0.57666781
0.57684909
0.57699609
0.57711284
0.57719243
0.57721106
0.57714585
0.57702662
0.57698005
0.21637815
0.21508762
0.22055955
0.23406548
0.25141061
0.26982358
0.28809151
0.30557663
0.32205244
0.33745801
0.35181971
0.36519874
0.37766923
0.38930672
0.40018306
0.41036436
0.41991037
0.42887461
0.43730483
0.44524353
0.45272861
0.45979387
0.46646954
0.47278272
0.4787578
0.48441674
0.48977945
0.49486398
0.49968677
0.50426283
0.50860594
0.51272875
0.51664292
0.52035926
0.52388776
0.52723775
0.53041789
0.53343631
0.53630062
0.53901796
0.54159505
0.54403826
0.54635357
0.54854668
0.55062295
0.55258752
0.55444524
0.55620074
0.55785842
0.55942251
0.56089699
0.56228569
0.56359226
0.56482018
0.56597275
0.56705313
0.56806429
0.56900908
0.56989021
0.57071024
0.57147159
0.57217655
0.57282724
0.57342566
0.57397369
0.57447312
0.57492565
0.5753329
0.57569623
0.57601666
0.57629498
0.57653239
0.57673114
0.57689415
0.57702228
0.57711072
0.57715009
0.57713986
0.57707156
0.57703663
0.091789047
0.12180102
0.15927259
0.19297389
0.22312447
0.24966025
0.27320251
0.29421993
0.31312993
0.33025962
0.34587264
0.36018011
0.37335332
0.38553243
0.39683335
0.40735277
0.41717215
0.42636062
0.43497736
0.44307335
0.45069283
0.45787442
0.46465205
0.47105567
0.47711186
0.48284436
0.48827441
0.49342116
0.49830192
0.50293241
0.50732695
0.51149864
0.5154595
0.51922064
0.52279229
0.52618396
0.52940447
0.53246209
0.53536451
0.53811897
0.54073226
0.54321079
0.54556058
0.54778737
0.54989656
0.55189329
0.55378245
0.55556867
0.55725637
0.55884977
0.56035288
0.56176954
0.56310339
0.56435793
0.56553647
0.56664217
0.56767801
0.56864686
0.56955143
0.5703943
0.57117788
0.57190444
0.57257612
0.57319488
0.57376258
0.574281
0.57475181
0.57517656
0.57555658
0.57589297
0.57618682
0.57643957
0.57665309
0.57682914
0.57696786
0.57706655
0.57712074
0.57712922
0.57710259
0.57706757
0.012321849
0.28504301
0.46698662
0.51766389
0.52739369
0.52742069
0.52743166
0.52904315
0.5309364
0.53275149
0.53443695
0.5360857
0.53763791
0.53916134
0.54066665
0.54216198
0.54364816
0.54512791
0.54660322
0.54807471
0.54954239
0.5510059
0.55246457
0.55391753
0.55536368
0.55680179
0.55823051
0.55964841
0.561054
0.56244573
0.56382201
0.56518122
0.56652172
0.56784184
0.56913988
0.57041413
0.57166286
0.5728843
0.57407668
0.57523821
0.57636706
0.57746141
0.57851942
0.57953924
0.58051902
0.58145693
0.58235113
0.58319984
0.58400129
0.58475383
0.58545584
0.58610584
0.58670245
0.58724442
0.58773062
0.58816011
0.58853214
0.58884609
0.58910159
0.58929823
0.58943536
0.58951277
0.58953071
0.58948952
0.58938906
0.58922918
0.58900705
0.58872326
0.58836704
0.58795315
0.58744091
0.58690852
0.58618766
0.58556741
0.58452578
0.58397093
0.58242222
0.58209353
0.57998199
0.57983635
0.047355583
0.36940018
0.52239346
0.54929531
0.54938179
0.54683541
0.5460726
0.54635066
0.54659074
0.54689102
0.54729149
0.54784327
0.54850761
0.54925445
0.55005762
0.55091354
0.55181738
0.55276648
0.55375659
0.55478319
0.55584218
0.55692964
0.55804183
0.55917509
0.5603259
0.56149081
0.56266652
0.56384978
0.56503746
0.56622653
0.56741402
0.56859707
0.56977287
0.5709387
0.57209189
0.57322982
0.57434995
0.57544974
0.57652674
0.57757851
0.57860264
0.5795968
0.58055865
0.58148593
0.58237639
0.58322784
0.58403817
0.58480531
0.5855273
0.58620227
0.5868285
0.58740437
0.58792843
0.58839938
0.58881609
0.58917761
0.58948324
0.58973242
0.58992489
0.59006029
0.59013811
0.59015829
0.59012121
0.59002732
0.58987657
0.58966878
0.58940141
0.58907449
0.58867862
0.58822586
0.58768109
0.58711168
0.58636849
0.58571237
0.58466286
0.58406404
0.58252259
0.58216085
0.58002357
0.57991326
0.094278119
0.44128048
0.54501558
0.55793461
0.55578403
0.55450623
0.55443616
0.55489863
0.5551795
0.55557324
0.55595105
0.55639229
0.55685775
0.55737349
0.55793023
0.55853068
0.55917154
0.55985357
0.56057487
0.5613332
0.56212636
0.562952
0.5638076
0.56469051
0.56559797
0.56652715
0.56747517
0.5684391
0.56941598
0.57040284
0.5713967
0.57239456
0.57339344
0.57439038
0.57538239
0.57636654
0.5773399
0.57829958
0.57924271
0.58016646
0.58106804
0.58194471
0.58279377
0.58361258
0.58439856
0.58514921
0.5858621
0.58653492
0.58716548
0.58775171
0.58829172
0.58878377
0.5892263
0.58961793
0.58995751
0.59024406
0.59047687
0.59065547
0.59077963
0.59084908
0.5908634
0.59082262
0.59072726
0.59057782
0.59037433
0.59011657
0.58980219
0.58943082
0.58899393
0.5885018
0.58792294
0.58731722
0.58654923
0.58586089
0.58479736
0.58416098
0.58261775
0.58222864
0.58006557
0.5799833
0.16693339
0.49934616
0.55861119
0.56593361
0.56243797
0.56229076
0.56234336
0.56283603
0.56300698
0.56334699
0.56362556
0.56398157
0.56434924
0.56475657
0.56518722
0.56564717
0.5661343
0.56665121
0.56719727
0.56777185
0.56837436
0.56900402
0.56965981
0.57034051
0.57104468
0.57177074
0.57251689
0.57328116