/*--------------------------------*- C++ -*----------------------------------*\
| =========                 |                                                 |
| \\      /  F ield         | OpenFOAM: The Open Source CFD Toolbox           |
|  \\    /   O peration     | Version:  2512                                  |
|   \\  /    A nd           | Website:  www.openfoam.com                      |
|    \\/     M anipulation  |                                                 |
\*---------------------------------------------------------------------------*/
FoamFile
{
    version     2.0;
    format      ascii;
    arch        "LSB;label=32;scalar=64";
    class       volScalarField;
    location    "0.142";
    object      nut;
}
// * * * * * * * * * * * * * * * * * * * * * * * * * * * * * * * * * * * * * //

dimensions      [0 2 -1 0 0 0 0];

internalField   nonuniform List<scalar> 
16000
(
5.6136044e-07
1.1009019e-05
1.9055645e-05
2.3284432e-05
1.8553389e-05
2.5125465e-05
1.7859835e-05
2.45525e-05
1.9076513e-05
2.6521664e-05
2.2161126e-05
2.6161026e-05
2.3733142e-05
2.4364254e-05
2.3487514e-05
2.332772e-05
2.3052989e-05
2.2961564e-05
2.2949446e-05
2.3036963e-05
2.3216283e-05
2.3485947e-05
2.3843171e-05
2.4287724e-05
2.4821328e-05
2.5449581e-05
2.6180075e-05
2.7025111e-05
2.7999756e-05
2.9120232e-05
3.0404312e-05
3.1875705e-05
3.3565084e-05
3.5510275e-05
3.7757871e-05
4.0363463e-05
4.3393288e-05
4.6926329e-05
5.1060398e-05
5.5916798e-05
6.1637896e-05
6.8391276e-05
7.6388367e-05
8.5888301e-05
9.7199563e-05
0.00011069216
0.00012682509
0.00014615782
0.00016937174
0.00019729748
0.00023095201
0.00027158356
0.00032071947
0.00038023331
0.00045242437
0.00054012697
0.00064684793
0.00077694587
0.00093586981
0.0010191165
0.0010190373
0.0010189213
0.0010187642
0.0010185343
0.0010182288
0.0010178376
0.0010173527
0.0010167664
0.0010160692
0.0010152452
0.0010142629
0.0010130557
0.0010115821
0.0010101826
0.0010089747
0.0010078636
0.0010068349
0.0010064017
0.0010055424
0.0010065672
4.9999628e-07
1.0430855e-05
1.9585258e-05
2.0905424e-05
1.6759938e-05
2.2561434e-05
1.5879524e-05
2.151643e-05
1.6882477e-05
2.3426151e-05
2.0091331e-05
2.3600946e-05
2.1727824e-05
2.2094857e-05
2.14069e-05
2.1197156e-05
2.096701e-05
2.0873421e-05
2.0865064e-05
2.0945169e-05
2.1111188e-05
2.1361297e-05
2.1693288e-05
2.2107039e-05
2.2603792e-05
2.3188763e-05
2.3868516e-05
2.465411e-05
2.5559798e-05
2.6601414e-05
2.7795499e-05
2.9163708e-05
3.0734432e-05
3.2542698e-05
3.4632102e-05
3.7054924e-05
3.9873876e-05
4.3163192e-05
4.7013982e-05
5.1541099e-05
5.6881417e-05
6.3192771e-05
7.0674318e-05
7.9573199e-05
9.0185846e-05
0.00010286412
0.00011804604
0.00013626742
0.00015818243
0.00018458912
0.00021646501
0.00025501322
0.00030170808
0.00035836164
0.00042719991
0.00051096943
0.00061307205
0.0007377317
0.00089021489
0.0010183936
0.0010183331
0.001018197
0.0010180272
0.0010177863
0.0010174711
0.0010170715
0.0010165789
0.0010159856
0.0010152819
0.0010144524
0.0010134713
0.0010122826
0.0010108386
0.0010094985
0.0010083453
0.0010072799
0.0010063334
0.0010057237
0.0010052979
0.0010063869
4.4531709e-07
9.9926209e-06
1.8563014e-05
1.9193754e-05
1.5046135e-05
1.9907096e-05
1.4158547e-05
1.8715825e-05
1.5198245e-05
2.055947e-05
1.8336521e-05
2.1022481e-05
1.9697205e-05
1.9796977e-05
1.9265017e-05
1.9035779e-05
1.8841566e-05
1.8755978e-05
1.8753312e-05
1.8830302e-05
1.898588e-05
1.9218612e-05
1.9526586e-05
1.9909988e-05
2.0369734e-05
2.0910872e-05
2.1539282e-05
2.2264998e-05
2.3101315e-05
2.4063693e-05
2.5167866e-05
2.6433875e-05
2.7888233e-05
2.9563556e-05
3.150079e-05
3.3749171e-05
3.6368291e-05
3.9428675e-05
4.3015819e-05
4.7238133e-05
5.2227999e-05
5.8135771e-05
6.5150117e-05
7.3506992e-05
8.3493239e-05
9.5446027e-05
0.00010978578
0.00012702847
0.0001478055
0.00017288841
0.00020322187
0.00023997154
0.00028456726
0.0003387698
0.00040474402
0.00048516255
0.00058333846
0.00070338859
0.0008504375
0.0010177156
0.0010176741
0.001017513
0.0010173224
0.0010170628
0.0010167304
0.0010163151
0.0010158079
0.0010152008
0.0010144843
0.0010136428
0.0010126536
0.0010114729
0.0010100567
0.0010087852
0.0010076937
0.0010066922
0.0010057913
0.0010051185
0.0010049068
0.0010056518
3.8660722e-07
9.6667797e-06
1.7660072e-05
1.8417242e-05
1.357933e-05
1.7609504e-05
1.2634821e-05
1.637011e-05
1.3696187e-05
1.8127053e-05
1.6755645e-05
1.8740028e-05
1.7823413e-05
1.7728635e-05
1.7314113e-05
1.7085987e-05
1.6923062e-05
1.684976e-05
1.6854525e-05
1.6930873e-05
1.7078484e-05
1.7296448e-05
1.7583215e-05
1.7939425e-05
1.8365816e-05
1.8867415e-05
1.9449665e-05
2.0121794e-05
2.0896187e-05
2.1787999e-05
2.2812439e-05
2.398818e-05
2.5340215e-05
2.6899092e-05
2.8703521e-05
3.0800123e-05
3.3245803e-05
3.6108196e-05
3.9468362e-05
4.3428733e-05
4.8118271e-05
5.3681709e-05
6.0299346e-05
6.8197237e-05
7.7655371e-05
8.8999671e-05
0.00010263671
0.00011906711
0.00013890481
0.00016290197
0.00019197844
0.00022727251
0.00027018151
0.00032242971
0.00038613914
0.00046393095
0.00055905615
0.00067555902
0.00081847511
0.00099406622
0.0010170586
0.0010168694
0.0010166533
0.0010163704
0.0010160165
0.0010155815
0.0010150558
0.0010144309
0.001013698
0.0010128413
0.0010118397
0.0010106634
0.0010092713
0.00100807
0.0010070443
0.0010061084
0.0010052407
0.0010045616
0.0010044882
0.0010048771
3.4402652e-07
9.432182e-06
1.6892988e-05
1.8503907e-05
1.3435073e-05
1.5596274e-05
1.1296399e-05
1.435425e-05
1.2403117e-05
1.6031296e-05
1.5350659e-05
1.6683341e-05
1.6073912e-05
1.5847187e-05
1.5519424e-05
1.5305682e-05
1.5167801e-05
1.5106368e-05
1.5116449e-05
1.5190851e-05
1.5329595e-05
1.5532461e-05
1.5798298e-05
1.6128241e-05
1.6522996e-05
1.6987604e-05
1.752718e-05
1.815032e-05
1.8868496e-05
1.9696509e-05
2.0649229e-05
2.1744197e-05
2.300515e-05
2.4460859e-05
2.6148117e-05
2.8111278e-05
3.0404862e-05
3.3094181e-05
3.6257009e-05
3.9990119e-05
4.4419628e-05
4.9686109e-05
5.5963391e-05
6.3468286e-05
7.2475653e-05
8.3302745e-05
9.6344773e-05
0.00011208989
0.00013113763
0.00015422525
0.00018225232
0.00021633542
0.00025784566
0.00030847821
0.00037032129
0.00044595523
0.00053858166
0.00065218652
0.00079173532
0.00096339698
0.0010164872
0.001016267
0.00101602
0.0010157088
0.0010153285
0.0010148691
0.0010143205
0.0010136737
0.0010129201
0.0010120448
0.0010110258
0.0010098488
0.0010084909
0.0010073615
0.0010064042
0.0010055337
0.0010047
0.0010040395
0.0010040128
0.0010041491
3.1131371e-07
9.2755679e-06
1.628388e-05
1.8237757e-05
1.3242566e-05
1.3839782e-05
1.0736955e-05
1.2683784e-05
1.1693541e-05
1.431045e-05
1.4122557e-05
1.4875671e-05
1.4470606e-05
1.4165207e-05
1.3891859e-05
1.3694239e-05
1.3572654e-05
1.3518957e-05
1.3530947e-05
1.3601596e-05
1.373092e-05
1.3919253e-05
1.4165698e-05
1.4471661e-05
1.4838009e-05
1.5269723e-05
1.5771614e-05
1.6351846e-05
1.7021001e-05
1.7793496e-05
1.8684038e-05
1.9709262e-05
2.0891928e-05
2.2259342e-05
2.3846747e-05
2.5696646e-05
2.7861566e-05
3.0405012e-05
3.3402706e-05
3.694659e-05
4.1160209e-05
4.6181497e-05
5.2180208e-05
5.936483e-05
6.8006981e-05
7.841824e-05
9.0985444e-05
0.00010618792
0.00012461457
0.0001469933
0.00017420932
0.00020736492
0.00024781353
0.00029723127
0.00035768529
0.00043173011
0.00052253585
0.00063405103
0.00077119862
0.00094009293
0.0010159518
0.0010156979
0.0010154156
0.0010150718
0.001014661
0.0010141734
0.0010135984
0.0010129261
0.0010121484
0.0010112518
0.0010102123
0.0010090279
0.0010077196
0.0010066639
0.001005777
0.0010049714
0.0010041773
0.0010035456
0.0010035069
0.0010034684
2.8002912e-07
9.1828951e-06
1.580119e-05
1.7214194e-05
1.3085161e-05
1.222878e-05
1.0731987e-05
1.1676447e-05
1.1205431e-05
1.2723773e-05
1.3001892e-05
1.3268922e-05
1.2970449e-05
1.2632034e-05
1.2390981e-05
1.2210893e-05
1.2102597e-05
1.2056404e-05
1.2070769e-05
1.2139202e-05
1.2261345e-05
1.2438025e-05
1.2668573e-05
1.2877946e-05
1.3211231e-05
1.3607114e-05
1.406984e-05
1.4606817e-05
1.5227607e-05
1.5945912e-05
1.6776245e-05
1.7734369e-05
1.8842151e-05
2.0125513e-05
2.1618275e-05
2.336126e-05
2.5405141e-05
2.7811649e-05
3.0655213e-05
3.4280626e-05
3.8320697e-05
4.3146106e-05
4.8924942e-05
5.5858585e-05
6.4216465e-05
7.4307406e-05
8.6512754e-05
0.00010130635
0.00011926958
0.00014112627
0.00016775243
0.00020024275
0.00023994062
0.00028851196
0.0003480138
0.00042098817
0.00051058919
0.0006207458
0.00075636058
0.00092352446
0.0010154493
0.0010151589
0.0010148374
0.0010144573
0.0010140124
0.001013493
0.0010128884
0.0010121876
0.0010113826
0.0010104623
0.0010094016
0.0010082006
0.0010069664
0.0010059856
0.0010051693
0.0010044285
0.0010036804
0.0010030801
0.0010030089
0.0010028246
2.5286064e-07
9.1298555e-06
1.5380559e-05
1.5618254e-05
1.1736882e-05
1.0651929e-05
9.0569824e-06
1.0374981e-05
9.4880294e-06
1.1462569e-05
1.1862927e-05
1.178499e-05
1.1532759e-05
1.1204825e-05
1.0991514e-05
1.0834144e-05
1.0741883e-05
1.0706278e-05
1.0660784e-05
1.0714364e-05
1.0821323e-05
1.0981667e-05
1.1193504e-05
1.1456446e-05
1.177464e-05
1.2151116e-05
1.2590292e-05
1.3099558e-05
1.368796e-05
1.4368805e-05
1.5156836e-05
1.6067379e-05
1.7121904e-05
1.8345486e-05
1.9771134e-05
2.1438632e-05
2.3397555e-05
2.5708558e-05
2.8445649e-05
3.1698936e-05
3.5578253e-05
4.0222703e-05
4.5800518e-05
5.2950163e-05
6.1105485e-05
7.0972588e-05
8.2930563e-05
9.7451024e-05
0.00011511117
0.00013663631
0.00016289883
0.00019499284
0.0002342601
0.00028236588
0.00034136887
0.00041381312
0.00050285381
0.00061242014
0.00074741736
0.00091394524
0.001014973
0.0010146437
0.0010142798
0.0010138603
0.0010133782
0.0010128243
0.0010121875
0.0010114562
0.0010106211
0.0010096747
0.0010085954
0.0010073705
0.0010062365
0.0010053318
0.0010045853
0.0010039096
0.0010032143
0.0010026445
0.0010025218
0.0010021522
2.2565466e-07
9.0959594e-06
1.492459e-05
1.3675741e-05
9.6172573e-06
9.4907673e-06
7.492036e-06
8.9096412e-06
9.0592137e-06
1.0267984e-05
1.0712207e-05
1.0408012e-05
1.018033e-05
9.8863687e-06
9.7001761e-06
9.5001305e-06
9.4002319e-06
9.3616466e-06
9.3773672e-06
9.4440695e-06
9.5568444e-06
9.7186664e-06
9.9270271e-06
1.0182349e-05
1.0488702e-05
1.0849939e-05
1.1270584e-05
1.1758089e-05
1.2321171e-05
1.2972732e-05
1.372785e-05
1.4601643e-05
1.5615466e-05
1.6793816e-05
1.8169211e-05
1.9780812e-05
2.1677543e-05
2.391948e-05
2.6580055e-05
2.9748624e-05
3.3535415e-05
3.8077567e-05
4.3546107e-05
5.0139365e-05
5.8111579e-05
6.7779074e-05
8.0224294e-05
9.4605448e-05
0.00011212087
0.0001335027
0.00015962552
0.00019159006
0.00023074485
0.00027876429
0.00033772074
0.00041017504
0.0004993011
0.00060904873
0.00074434867
0.00091133975
0.0010145174
0.0010141469
0.0010137382
0.0010132768
0.0010127552
0.0010121644
0.0010114935
0.0010107301
0.0010098635
0.0010088877
0.0010077948
0.0010065703
0.0010055356
0.0010047082
0.0010040299
0.0010034191
0.0010027837
0.0010022384
0.0010020535
0.001001522
2.0840259e-07
9.0541612e-06
1.3215844e-05
1.1953945e-05
7.7739942e-06
8.4448172e-06
6.7859988e-06
8.0189726e-06
8.3840187e-06
9.1779375e-06
9.573118e-06
9.1557193e-06
8.937929e-06
8.5988398e-06
8.4055256e-06
8.2773019e-06
8.2111075e-06
8.1979561e-06
8.2308256e-06
8.3101298e-06
8.4302157e-06
8.5928562e-06
8.799259e-06
9.0492783e-06
9.347257e-06
9.6974874e-06
1.0104677e-05
1.0576475e-05
1.1121416e-05
1.1752031e-05
1.2483773e-05
1.3331843e-05
1.431768e-05
1.5465443e-05
1.680745e-05
1.8382613e-05
2.0239607e-05
2.2438436e-05
2.5052852e-05
2.8172648e-05
3.1908183e-05
3.6396251e-05
4.1811066e-05
4.8351148e-05
5.6273134e-05
6.5895503e-05
7.7610975e-05
9.1880664e-05
0.00011028871
0.00013171636
0.00015792552
0.0001900305
0.0002293958
0.0002777152
0.00033708742
0.0004101058
0.00049998184
0.00061070834
0.00074726578
0.00091586127
0.0010140761
0.0010136622
0.0010132073
0.0010127022
0.0010121394
0.0010115102
0.0010108037
0.0010100073
0.0010091092
0.0010081018
0.0010069946
0.0010058085
0.0010048691
0.0010041192
0.0010035071
0.0010029599
0.0010023923
0.0010018723
0.0010016143
0.0010010408
1.8987124e-07
9.0032179e-06
1.0478777e-05
9.8272311e-06
6.4346386e-06
7.5158228e-06
6.1913626e-06
7.2011161e-06
7.8372742e-06
8.1816969e-06
8.4537491e-06
7.9299819e-06
7.6683781e-06
7.4289239e-06
7.2832303e-06
7.1942025e-06
7.1562135e-06
7.1658373e-06
7.2154763e-06
7.3044285e-06
7.431118e-06
7.5969083e-06
7.8034055e-06
8.0510794e-06
8.3443896e-06
8.6881011e-06
9.0872322e-06
9.5496781e-06
1.0083972e-05
1.0702325e-05
1.1362052e-05
1.2185798e-05
1.314564e-05
1.4265355e-05
1.5577029e-05
1.7119342e-05
1.8940782e-05
2.1101326e-05
2.3675162e-05
2.6752792e-05
3.0445705e-05
3.5165673e-05
4.0582252e-05
4.7136012e-05
5.5086106e-05
6.4754375e-05
7.6544657e-05
9.092894e-05
0.00010850245
0.00013000726
0.00015778365
0.00019030164
0.00023020453
0.00027921629
0.00033947532
0.00041362424
0.00050493214
0.00061745919
0.00075626226
0.00092764479
0.001013643
0.001013184
0.0010126819
0.0010121321
0.0010115271
0.0010108585
0.0010101157
0.001009286
0.0010083573
0.0010073197
0.0010061907
0.0010050898
0.0010042414
0.0010035685
0.0010030206
0.0010025337
0.0010020384
0.0010015586
0.0010012294
0.0010006504
1.7470692e-07
8.9501265e-06
8.270075e-06
8.3641843e-06
5.7604873e-06
6.6552475e-06
5.6792143e-06
6.4858457e-06
7.2787296e-06
7.2518519e-06
7.2401367e-06
6.7933534e-06
6.5788222e-06
6.40042e-06
6.2953787e-06
6.2394038e-06
6.2275618e-06
6.2552887e-06
6.3193467e-06
6.4192866e-06
6.5535737e-06
6.7240015e-06
6.9330501e-06
7.1816902e-06
7.4745099e-06
7.7830718e-06
8.1729831e-06
8.6257677e-06
9.1498246e-06
9.7569199e-06
1.0461207e-05
1.1281098e-05
1.2237357e-05
1.3353836e-05
1.4662941e-05
1.6203785e-05
1.8025497e-05
2.0188906e-05
2.2769759e-05
2.586056e-05
2.9575535e-05
3.405744e-05
3.9481222e-05
4.6056716e-05
5.404751e-05
6.433572e-05
7.6311227e-05
9.0940244e-05
0.00010882861
0.00013074125
0.00015761277
0.00019239074
0.00023316404
0.00028326864
0.00034489661
0.00042075795
0.00051420084
0.00062937948
0.00077145792
0.0009468633
0.0010132123
0.0010127067
0.0010121574
0.0010115625
0.0010109149
0.0010102066
0.0010094275
0.0010085645
0.0010076062
0.001006546
0.0010053943
0.0010044175
0.001003656
0.0010030583
0.0010025732
0.0010021424
0.0010017139
0.0010012848
0.0010009112
0.001000313
1.6131204e-07
8.871467e-06
6.5792662e-06
7.3468239e-06
5.1336943e-06
5.884559e-06
5.2359017e-06
5.8487018e-06
6.6121331e-06
6.1982583e-06
6.1438779e-06
5.798657e-06
5.6275442e-06
5.4988648e-06
5.4288825e-06
5.4013998e-06
5.4118836e-06
5.4578051e-06
5.5361114e-06
5.6472493e-06
5.7905622e-06
5.9679781e-06
6.1563263e-06
6.4038426e-06
6.6953549e-06
7.0350671e-06
7.4300404e-06
7.8878261e-06
8.4170145e-06
9.0295473e-06
9.7397115e-06
1.0565686e-05
1.1529465e-05
1.2655278e-05
1.3976106e-05
1.5531866e-05
1.7372856e-05
1.9561259e-05
2.2175068e-05
2.5309782e-05
2.9082542e-05
3.3639357e-05
3.916416e-05
4.5872105e-05
5.4035038e-05
6.3991138e-05
7.6160579e-05
9.1051422e-05
0.00011025197
0.00013276049
0.000160381
0.00019430628
0.00023825904
0.00028986474
0.00035335414
0.00043152436
0.00052782591
0.00064653533
0.0007929607
0.00097368314
0.0010127786
0.0010122253
0.0010116294
0.0010109898
0.0010102999
0.001009552
0.001008737
0.0010078421
0.0010068543
0.0010057814
0.0010046694
0.0010037941
0.0010031154
0.0010025895
0.001002166
0.001001788
0.0010014199
0.0010010526
0.0010006754
0.0010000711
1.4942613e-07
8.7380491e-06
5.2813828e-06
6.4235199e-06
4.5706487e-06
5.1965719e-06
4.8574286e-06
5.1977151e-06
5.7764066e-06
5.282804e-06
5.1828592e-06
4.9294699e-06
4.7990809e-06
4.7119487e-06
4.6729897e-06
4.6711488e-06
4.7025744e-06
4.7657644e-06
4.8586623e-06
4.9635079e-06
5.1119245e-06
5.2944762e-06
5.5134603e-06
5.7718634e-06
6.073968e-06
6.4243292e-06
6.8298971e-06
7.2988145e-06
7.8398724e-06
8.465159e-06
9.1890825e-06
1.0030056e-05
1.0960869e-05
1.209603e-05
1.3428432e-05
1.4998768e-05
1.6858705e-05
1.9071822e-05
2.1718389e-05
2.4897378e-05
2.8729825e-05
3.3619351e-05
3.9295265e-05
4.6196489e-05
5.460418e-05
6.4866163e-05
7.7422605e-05
9.2803876e-05
0.00011165962
0.00013603352
0.00016463125
0.00019977447
0.00024298409
0.00029898273
0.00036483503
0.00044592273
0.00054582518
0.00066896999
0.00082085191
0.0010082479
0.0010123372
0.0010117359
0.0010110946
0.0010104111
0.0010096797
0.0010088931
0.0010080428
0.0010071184
0.0010061055
0.0010050148
0.0010040063
0.0010032242
0.0010026214
0.0010021626
0.001001799
0.0010014716
0.0010011531
0.0010008511
0.0010005174
0.00099992674
1.3892138e-07
8.5185444e-06
4.3040567e-06
5.5977216e-06
4.0660546e-06
4.584855e-06
4.5251532e-06
4.4915694e-06
4.9356603e-06
4.4683335e-06
4.3517296e-06
4.1738238e-06
4.0817209e-06
4.0302947e-06
4.0193626e-06
4.0411618e-06
4.0926498e-06
4.156593e-06
4.2594354e-06
4.3928516e-06
4.5577264e-06
4.7555957e-06
4.9894073e-06
5.2623129e-06
5.5791174e-06
5.9446081e-06
6.3657782e-06
6.8306653e-06
7.3836887e-06
8.0215583e-06
8.7587395e-06
9.6136839e-06
1.0608977e-05
1.1773019e-05
1.313973e-05
1.4751152e-05
1.6661297e-05
1.8936141e-05
2.1659136e-05
2.4934247e-05
2.8888037e-05
3.3680008e-05
3.950314e-05
4.6595228e-05
5.5249349e-05
6.6378871e-05
7.9426168e-05
9.5420897e-05
0.00011504431
0.00013913678
0.00017031905
0.00020695347
0.00025201521
0.00030745804
0.00037929498
0.0004639156
0.00056817328
0.00069667637
0.00085514987
0.0010125097
0.0010118836
0.0010112356
0.0010105506
0.0010098246
0.001009053
0.001008229
0.0010073442
0.0010063916
0.0010053666
0.0010042863
0.001003406
0.00100271
0.0010021761
0.0010017775
0.0010014708
0.0010011929
0.0010009144
0.0010006685
0.0010004043
0.00099983458
1.2968967e-07
8.2157154e-06
3.686235e-06
4.8631732e-06
3.6158105e-06
4.0421077e-06
4.0084836e-06
3.8531186e-06
4.1273348e-06
3.7498936e-06
3.640578e-06
3.522704e-06
3.4662437e-06
3.4463318e-06
3.4611706e-06
3.4924326e-06
3.5574682e-06
3.652098e-06
3.77554e-06
3.9280394e-06
4.1110625e-06
4.326623e-06
4.578047e-06
4.8687443e-06
5.1921288e-06
5.5728828e-06
6.0096276e-06
6.5104702e-06
7.0856215e-06
7.7472656e-06
8.5102644e-06
9.393836e-06
1.0421511e-05
1.1622787e-05
1.3033929e-05
1.469854e-05
1.6673523e-05
1.9027963e-05
2.1848744e-05
2.5245989e-05
2.9351315e-05
3.4332219e-05
4.0394182e-05
4.7785596e-05
5.6815981e-05
6.7865215e-05
8.2123818e-05
9.8854305e-05
0.00011938964
0.00014462106
0.00017562226
0.00021577136
0.00026300958
0.00032115076
0.00039272073
0.00048540383
0.00059477152
0.00072956227
0.00089576683
0.0010120774
0.0010114144
0.0010107226
0.001009996
0.0010092296
0.0010084192
0.0010075597
0.0010066429
0.0010056624
0.0010046316
0.0010036423
0.0010028666
0.0010022524
0.001001781
0.0010014351
0.0010011792
0.0010009496
0.0010007085
0.0010005055
0.0010003097
0.000999834
1.2177129e-07
7.3874876e-06
3.2368098e-06
4.2061357e-06
3.2152667e-06
3.4097448e-06
3.5509892e-06
3.2684282e-06
3.3967621e-06
3.1264254e-06
3.0391084e-06
2.9688495e-06
2.9449817e-06
2.9535775e-06
2.9775392e-06
3.0389414e-06
3.128776e-06
3.2458317e-06
3.3901862e-06
3.562772e-06
3.7655636e-06
4.0008339e-06
4.2641112e-06
4.572529e-06
4.9253062e-06
5.3281166e-06
5.7877991e-06
6.3127646e-06
6.9134457e-06
7.6028086e-06
8.3962008e-06
9.3136665e-06
1.037981e-05
1.1625608e-05
1.303349e-05
1.474748e-05
1.6782886e-05
1.9212388e-05
2.2259766e-05
2.5803126e-05
3.0089782e-05
3.5295159e-05
4.1638325e-05
4.9380929e-05
5.8848167e-05
7.0442711e-05
8.4658698e-05
0.00010210268
0.0001246234
0.00015116013
0.00018378032
0.00022389715
0.00027584081
0.00033706207
0.00041243844
0.00051019663
0.00062540941
0.00076740473
0.00094247079
0.0010116297
0.0010109293
0.0010101967
0.001009431
0.0010086267
0.0010077795
0.0010068858
0.0010059408
0.0010049412
0.0010039126
0.0010030681
0.0010023881
0.0010018501
0.0010014367
0.0010011371
0.0010009236
0.0010007372
0.0010005371
0.0010003806
0.0010002472
0.00099995669
1.1538101e-07
5.361854e-06
2.8518003e-06
3.6107105e-06
2.8670212e-06
2.8266937e-06
3.0948132e-06
2.7387398e-06
2.7695477e-06
2.594358e-06
2.5361092e-06
2.5049414e-06
2.5034274e-06
2.5312093e-06
2.5909144e-06
2.6784416e-06
2.7918605e-06
2.9309464e-06
3.0965045e-06
3.2898975e-06
3.5084065e-06
3.7628989e-06
4.0534958e-06
4.3842325e-06
4.7599458e-06
5.1865158e-06
5.6711057e-06
6.2224628e-06
6.851355e-06
7.5547099e-06
8.3765206e-06
9.3252659e-06
1.0426549e-05
1.1712454e-05
1.3223111e-05
1.5008699e-05
1.713127e-05
1.9668507e-05
2.2716817e-05
2.6395331e-05
3.0851994e-05
3.6530264e-05
4.3192265e-05
5.1332964e-05
6.1294294e-05
7.3501391e-05
8.8477274e-05
0.0001068659
0.0001306474
0.00015864072
0.00019306613
0.00023541403
0.00029031978
0.00035497062
0.00043459245
0.00053267885
0.00065972874
0.00080980066
0.00099481633
0.0010111685
0.0010104299
0.0010096592
0.001008857
0.001008018
0.0010071369
0.0010062106
0.0010052391
0.0010042353
0.0010032949
0.0010025577
0.0010019672
0.0010014998
0.0010011415
0.0010008838
0.0010007048
0.0010005535
0.001000393
0.0010002775
0.0010002126
0.00099998301
1.1016911e-07
3.987732e-06
2.5060148e-06
3.0601081e-06
2.4300411e-06
2.3362774e-06
2.6174672e-06
2.2678103e-06
2.2488097e-06
2.1480031e-06
2.1219578e-06
2.1177435e-06
2.1456639e-06
2.2050211e-06
2.2916859e-06
2.4032706e-06
2.539055e-06
2.6995003e-06
2.883247e-06
3.0962495e-06
3.3395192e-06
3.6158882e-06
3.9288131e-06
4.2825058e-06
4.6820526e-06
5.1335894e-06
5.6445704e-06
6.2147645e-06
6.8703898e-06
7.6188782e-06
8.4775124e-06
9.4677642e-06
1.0616698e-05
1.1958304e-05
1.3535199e-05
1.5400504e-05
1.762026e-05
2.0276641e-05
2.3471907e-05
2.7332963e-05
3.2017094e-05
3.7718277e-05
4.5008817e-05
5.3586709e-05
6.4090445e-05
7.6969358e-05
9.2776748e-05
0.00011219517
0.00013606632
0.00016691179
0.00020330062
0.00024807768
0.00030319971
0.0003745626
0.00045880501
0.00056260812
0.0006971888
0.00085611727
0.00101146
0.0010106957
0.0010099194
0.0010091136
0.0010082771
0.0010074063
0.0010064955
0.0010055409
0.0010045496
0.0010035567
0.0010027541
0.0010021105
0.0010015997
0.0010011969
0.0010008908
0.0010006728
0.0010005216
0.0010003959
0.001000271
0.001000196
0.0010001629
0.0010000461
1.0460714e-07
3.523131e-06
2.140421e-06
2.5521696e-06
2.0714705e-06
1.9255618e-06
2.1303242e-06
1.8571608e-06
1.8278926e-06
1.7837659e-06
1.7855746e-06
1.8134386e-06
1.8738772e-06
1.9605544e-06
2.0710321e-06
2.2043876e-06
2.3608286e-06
2.5395192e-06
2.7451664e-06
2.9788917e-06
3.2432187e-06
3.5412112e-06
3.8765374e-06
4.2535806e-06
4.6776075e-06
5.1549782e-06
5.687119e-06
6.2933547e-06
6.9810965e-06
7.7648089e-06
8.6626871e-06
9.6974495e-06
1.0897672e-05
1.2299285e-05
1.3947514e-05
1.5898989e-05
1.8224035e-05
2.1009828e-05
2.4364808e-05
2.8423038e-05
3.3350967e-05
3.9639258e-05
4.7033062e-05
5.6077724e-05
6.7160275e-05
8.0755473e-05
9.7448352e-05
0.00011796051
0.00014450862
0.00017577877
0.00021424786
0.00026159917
0.00031990649
0.00039541377
0.00048456934
0.00059446259
0.00073702616
0.00090543208
0.0010110026
0.0010102136
0.0010094032
0.0010085653
0.0010076969
0.001006796
0.0010058594
0.0010048829
0.0010038831
0.0010029881
0.0010022819
0.0010017217
0.0010012813
0.001000937
0.0010006774
0.0010004978
0.0010003705
0.0010002632
0.0010001672
0.0010001335
0.0010001285
0.0010000597
1.0054397e-07
3.0385838e-06
1.8248209e-06
2.0406142e-06
1.7753259e-06
1.5753737e-06
1.6833289e-06
1.511933e-06
1.4990932e-06
1.4995889e-06
1.5290615e-06
1.5903985e-06
1.6776078e-06
1.7871613e-06
1.918113e-06
2.0706595e-06
2.2447513e-06
2.4434786e-06
2.6684169e-06
2.9218886e-06
3.2066715e-06
3.5260152e-06
3.8837279e-06
4.2843164e-06
4.7331847e-06
5.2333157e-06
5.7980173e-06
6.4347893e-06
7.1557041e-06
7.9759104e-06
8.9146352e-06
9.9959064e-06
1.1249974e-05
1.2714825e-05
1.4438236e-05
1.6480299e-05
1.8916144e-05
2.1838034e-05
2.5361203e-05
2.9627553e-05
3.5042046e-05
4.1414744e-05
4.9199848e-05
5.8729837e-05
7.0412469e-05
8.4750138e-05
0.00010236096
0.00012400783
0.00015198882
0.00018499305
0.00022560913
0.0002756169
0.00033721586
0.00041696066
0.00051120387
0.00062741845
0.00077822123
0.00095650513
0.0010105442
0.0010097289
0.0010088876
0.0010080211
0.0010071242
0.0010061946
0.0010052343
0.0010042517
0.0010032776
0.0010025031
0.0010018785
0.0010013864
0.0010010058
0.0010007169
0.0010004955
0.0010003506
0.0010002458
0.0010001541
0.0010000808
0.0010000806
0.0010001068
0.0010000731
9.8132304e-08
2.5370541e-06
1.55059e-06
1.5534683e-06
1.5048714e-06
1.2776669e-06
1.3212012e-06
1.2382277e-06
1.2538873e-06
1.2857155e-06
1.3486282e-06
1.435792e-06
1.544157e-06
1.6723831e-06
1.8207216e-06
1.9901798e-06
2.1816203e-06
2.3980075e-06
2.6411755e-06
2.9136718e-06
3.2184201e-06
3.5587891e-06
3.9386896e-06
4.3627259e-06
4.8364061e-06
5.3664265e-06
5.9610428e-06
6.6305167e-06
7.3791914e-06
8.2364424e-06
9.216718e-06
1.0345439e-05
1.1654646e-05
1.3184571e-05
1.498559e-05
1.7190465e-05
1.9758859e-05
2.2842755e-05
2.6564794e-05
3.1076304e-05
3.6563715e-05
4.3256351e-05
5.1437586e-05
6.1456338e-05
7.3742476e-05
8.8825985e-05
0.00010735917
0.00013128308
0.00015951959
0.00019425843
0.0002370205
0.00028968488
0.00035793201
0.00043850805
0.00053785863
0.00066043999
0.00081948183
0.0010077599
0.001010095
0.0010092519
0.0010083817
0.0010074887
0.0010065682
0.0010056153
0.0010046293
0.0010036374
0.0010027804
0.0010020926
0.0010015416
0.0010011047
0.0010007674
0.0010005279
0.0010003422
0.0010002248
0.0010001408
0.0010000666
0.0010000147
0.0010000361
0.0010000849
0.0010000716
9.8161346e-08
2.04105e-06
1.3197592e-06
1.1802743e-06
1.2361221e-06
1.029905e-06
1.0562567e-06
1.0366283e-06
1.0809412e-06
1.1421346e-06
1.2287978e-06
1.3351359e-06
1.4600825e-06
1.6037867e-06
1.7673084e-06
1.9521465e-06
2.159829e-06
2.3929207e-06
2.6535967e-06
2.9445152e-06
3.2686854e-06
3.6295532e-06
4.0311136e-06
4.4780695e-06
4.9760519e-06
5.5319184e-06
6.1541515e-06
6.8533583e-06
7.6428922e-06
8.5396411e-06
9.5649554e-06
1.0745881e-05
1.2116507e-05
1.371971e-05
1.560918e-05
1.7851912e-05
2.0531293e-05
2.3751091e-05
2.763974e-05
3.2356253e-05
3.8097065e-05
4.5103864e-05
5.3672297e-05
6.416868e-05
7.70431e-05
9.3619225e-05
0.00011319013
0.00013724558
0.00016683261
0.00020324482
0.00024807894
0.00030615625
0.00037472556
0.00045926033
0.00056355216
0.00069903756
0.00085927622
0.0010105274
0.0010096654
0.0010087957
0.0010078993
0.0010069793
0.0010060354
0.0010050688
0.0010040843
0.0010031156
0.0010023614
0.00100175
0.0010012644
0.0010008807
0.0010005831
0.0010003644
0.0010002159
0.001000118
0.0010000506
0.00099999465
0.00099996636
0.0010000057
0.00100007
0.0010000709
1.0144812e-07
1.5837973e-06
1.1304734e-06
9.0816115e-07
1.0797914e-06
8.2536663e-07
8.7450051e-07
8.9977039e-07
9.6656512e-07
1.0504852e-06
1.1541182e-06
1.2750453e-06
1.4136565e-06
1.5709461e-06
1.7483816e-06
1.9476767e-06
2.1707792e-06
2.4197169e-06
2.6971215e-06
3.0056305e-06
3.3483165e-06
3.7286972e-06
4.150853e-06
4.6195935e-06
5.1406861e-06
5.7211656e-06
6.3697519e-06
7.09742e-06
7.9180299e-06
8.8491879e-06
9.9131771e-06
1.1138298e-05
1.2560254e-05
1.4223983e-05
1.6185768e-05
1.8515866e-05
2.1301639e-05
2.4651412e-05
2.8699191e-05
3.3610481e-05
3.9859771e-05
4.7217615e-05
5.6214754e-05
6.7235053e-05
8.0750447e-05
9.7342402e-05
0.00011772795
0.00014279163
0.00017362204
0.00021354707
0.00026063023
0.00031862497
0.00039010784
0.00047827866
0.00059284399
0.00072829214
0.00089572057
0.0010101353
0.00100926
0.0010083714
0.001007456
0.0010065136
0.0010055432
0.0010045501
0.0010035619
0.001002702
0.0010020153
0.0010014662
0.0010010325
0.0010006941
0.0010004338
0.0010002375
0.0010001131
0.0010000304
0.00099997465
0.00099993407
0.0009999269
0.00099998127
0.0010000563
0.0010000683
1.0814952e-07
1.2372502e-06
9.6802728e-07
7.6503447e-07
7.71173e-07
7.0578699e-07
7.5191616e-07
8.12365e-07
8.9595995e-07
9.9558143e-07
1.1119327e-06
1.2449282e-06
1.3956298e-06
1.5653463e-06
1.7556643e-06
1.9683546e-06
2.2053974e-06
2.4689995e-06
2.7616322e-06
3.0860764e-06
3.4454875e-06
3.8434838e-06
4.2842705e-06
4.7728163e-06
5.3150991e-06
5.9163245e-06
6.5885796e-06
7.341861e-06
8.1978625e-06
9.1634317e-06
1.0266861e-05
1.1537822e-05
1.3013722e-05
1.4741577e-05
1.6780231e-05
1.9203033e-05
2.2101117e-05
2.5587397e-05
2.9801455e-05
3.4915586e-05
4.1142235e-05
4.8743183e-05
5.8040701e-05
6.9429749e-05
8.3398607e-05
0.00010054815
0.00012270196
0.00014880916
0.00018091589
0.00022042775
0.00026908321
0.00032903871
0.00040297013
0.00049890224
0.00061240139
0.0007526764
0.00092623252
0.0010097794
0.0010088896
0.0010079848
0.0010070567
0.0010061042
0.0010051261
0.0010041287
0.0010031507
0.0010023744
0.0010017442
0.0010012423
0.0010008456
0.0010005401
0.001000325
0.0010001358
0.0010000299
0.00099995975
0.00099991273
0.00099988491
0.00099989369
0.00099995823
0.001000041
0.0010000579
1.2256201e-07
1.2094491e-06
8.0961018e-07
5.6813156e-07
6.1265808e-07
6.1544276e-07
6.7932154e-07
7.5821816e-07
8.5505569e-07
9.6658441e-07
1.0938162e-06
1.2375607e-06
1.3991059e-06
1.5798549e-06
1.7814217e-06
2.0056035e-06
2.2544105e-06
2.5300907e-06
2.8351657e-06
3.1724749e-06
3.5452369e-06
3.9571355e-06
4.4124433e-06
4.9161991e-06
5.4744591e-06
6.0946416e-06
6.7859847e-06
7.5601336e-06
8.4318856e-06
9.4200811e-06
1.0548675e-05
1.1848081e-05
1.3356691e-05
1.5122775e-05
1.7206724e-05
1.9683784e-05
2.2647393e-05
2.6213212e-05
3.0524095e-05
3.5756181e-05
4.2126505e-05
5.0259889e-05
5.9844522e-05
7.1581563e-05
8.5973449e-05
0.00010363821
0.00012533859
0.00015201641
0.0001848358
0.00022523541
0.00027500142
0.00033945428
0.00041568158
0.00050977089
0.00062602932
0.00076984492
0.00094796169
0.0010094859
0.0010085789
0.0010076549
0.0010067096
0.0010057424
0.0010047553
0.0010037639
0.001002845
0.0010021248
0.0010015422
0.0010010801
0.0010007152
0.0010004329
0.0010002179
0.0010000657
0.00099996454
0.00099990377
0.00099986329
0.00099984507
0.00099986302
0.00099992926
0.0010000135
0.0010000404
1.1487251e-07
7.1646092e-07
6.4130869e-07
4.7031328e-07
5.1331323e-07
5.5920941e-07
6.3792938e-07
7.3026571e-07
8.3761132e-07
9.5928828e-07
1.0963773e-06
1.2499219e-06
1.421237e-06
1.6117831e-06
1.8232085e-06
2.0573574e-06
2.3162941e-06
2.6022954e-06
2.9179922e-06
3.2662714e-06
3.650419e-06
4.074187e-06
4.5419182e-06
5.0587247e-06
5.6307432e-06
6.2654861e-06
6.9723079e-06
7.7630102e-06
8.6596747e-06
9.6704871e-06
1.0824735e-05
1.215359e-05
1.3696343e-05
1.5502353e-05
1.7633314e-05
2.0166055e-05
2.319591e-05
2.684086e-05
3.1246608e-05
3.6592803e-05
4.3100678e-05
5.1042372e-05
6.0752403e-05
7.2643658e-05
8.7224101e-05
0.00010512033
0.0001271058
0.00015548887
0.00018898933
0.00023022097
0.00028100952