/*--------------------------------*- C++ -*----------------------------------*\
| =========                 |                                                 |
| \\      /  F ield         | OpenFOAM: The Open Source CFD Toolbox           |
|  \\    /   O peration     | Version:  2512                                  |
|   \\  /    A nd           | Website:  www.openfoam.com                      |
|    \\/     M anipulation  |                                                 |
\*---------------------------------------------------------------------------*/
FoamFile
{
    version     2.0;
    format      ascii;
    arch        "LSB;label=32;scalar=64";
    class       volScalarField;
    location    "0.142";
    object      omega;
}
// * * * * * * * * * * * * * * * * * * * * * * * * * * * * * * * * * * * * * //

dimensions      [0 0 -1 0 0 0 0];

internalField   nonuniform List<scalar> 
16000
(
1453.67
1944.5793
1082.8409
643.9301
453.2222
315.54229
239.26267
180.484
145.47135
117.76249
100.14668
85.723397
75.072651
66.149557
58.872927
52.735966
47.553904
43.132052
39.331311
36.040214
33.175257
30.665816
28.453722
26.49262
24.745097
23.18205
21.779372
20.518438
19.383477
18.360093
17.435256
16.598681
15.84218
15.158818
14.542678
13.988265
13.490402
13.044203
12.645578
12.291089
11.976866
11.698824
11.45399
11.239664
11.052782
10.890216
10.749536
10.62844
10.524716
10.436268
10.361219
10.29793
10.244872
10.200699
10.164235
10.134578
10.111134
10.093673
10.082526
10.078333
10.078845
10.078863
10.078325
10.077407
10.075973
10.073963
10.07133
10.068047
10.064064
10.059269
10.053423
10.046033
10.036846
10.028643
10.02249
10.017717
10.014261
10.016709
10.017224
10.034108
1466.1964
1922.6736
1071.3559
644.15468
453.51777
318.45326
240.37485
182.3806
146.31615
118.8058
100.69694
86.295392
75.438097
66.466998
59.102428
52.914457
47.684632
43.227298
39.398701
36.085451
33.203238
30.68117
28.460093
26.492939
24.741253
23.175551
21.771021
20.508682
19.372831
18.349319
17.424846
16.588771
15.832761
15.149767
14.533904
13.97974
13.48221
13.036366
12.637929
12.283574
11.969731
11.692093
11.447531
11.233462
11.046998
10.884861
10.744579
10.623864
10.52053
10.432477
10.357796
10.294858
10.242131
10.198271
10.162079
10.13261
10.109226
10.091595
10.079798
10.074409
10.074473
10.074446
10.073813
10.072816
10.07132
10.069256
10.06657
10.063235
10.059205
10.054372
10.048543
10.041301
10.032339
10.024579
10.01883
10.014411
10.011596
10.012528
10.016995
10.034325
1481.2784
1910.2036
1058.3284
640.30415
450.35276
318.70185
239.33373
182.58582
145.8978
118.98152
100.558
86.320454
75.344688
66.377221
58.977587
52.776807
47.535061
43.071714
39.24125
35.928525
33.048799
30.531313
28.316317
26.356498
24.612613
23.055081
21.658622
20.403979
19.275465
18.259283
17.342067
16.512908
15.763399
15.086397
14.47606
13.927004
13.434296
12.993034
12.598758
12.248118
11.937918
11.66374
11.422271
11.210949
11.027138
10.867452
10.729373
10.610629
10.50907
10.422626
10.349363
10.28768
10.236053
10.193164
10.15781
10.129029
10.106161
10.088848
10.077039
10.071022
10.07051
10.070358
10.069581
10.068449
10.066835
10.064666
10.06188
10.058446
10.054324
10.049407
10.043526
10.036356
10.027612
10.020374
10.015085
10.011153
10.008699
10.009145
10.015311
10.029726
1488.3443
1906.6564
1047.1933
636.71633
446.7889
318.7556
237.99908
182.6494
145.33903
119.05777
100.36757
86.283912
75.210375
66.2404
58.812598
52.600662
47.350213
42.883233
39.053315
35.743395
32.868146
30.357101
28.149872
26.199031
24.464473
22.916569
21.5296
20.284013
19.164046
18.156303
17.247432
16.426234
15.684239
15.014186
14.41028
13.867162
13.380027
12.944075
12.554695
12.208373
11.902359
11.632175
11.394322
11.186156
11.005366
10.848475
10.712901
10.596387
10.496815
10.412167
10.340476
10.280175
10.22975
10.187909
10.153461
10.125426
10.103117
10.086153
10.074425
10.068069
10.0669
10.066571
10.065618
10.064317
10.062554
10.060249
10.057335
10.053774
10.049533
10.04451
10.038545
10.031422
10.02287
10.01617
10.011373
10.00794
10.005742
10.006116
10.013382
10.025005
1500.0902
1912.613
1038.6267
633.27289
442.47543
318.0683
235.98508
182.22382
144.40721
118.85799
99.990552
86.072004
74.938323
65.972342
58.533515
52.321188
47.072841
42.611119
38.789685
35.489666
32.625061
30.12592
27.93127
25.993758
24.272483
22.737844
21.363748
20.130395
19.021852
18.025152
17.127086
16.316161
15.583877
14.922837
14.3273
13.791921
13.312
12.88289
12.499914
12.159236
11.858578
11.593487
11.360312
11.156191
10.979205
10.82582
10.693384
10.579651
10.482525
10.400073
10.330293
10.271661
10.222672
10.182073
10.148695
10.121547
10.099923
10.083425
10.071908
10.065404
10.06367
10.063103
10.061937
10.06043
10.058481
10.056007
10.052933
10.049215
10.044826
10.03967
10.033586
10.026473
10.018197
10.012051
10.007765
10.004824
10.002887
10.003352
10.0109
10.020386
1515.7469
1927.3459
1034.644
630.48964
438.57101
316.75683
233.49932
181.39168
143.21278
118.42175
99.471542
85.706735
74.547875
65.590132
58.154642
51.951376
46.714197
42.265333
38.459052
35.175002
32.326333
29.843828
27.665957
25.745467
24.040966
22.522825
21.164623
19.946378
18.851887
17.868602
16.983595
16.185063
15.464513
14.814385
14.229001
13.703024
13.231833
12.810944
12.435753
12.101976
11.807733
11.548694
11.32116
11.121884
10.94938
10.800117
10.671363
10.560885
10.46659
10.386671
10.31908
10.262349
10.214989
10.175784
10.143601
10.117451
10.096608
10.080657
10.069436
10.062906
10.060748
10.059894
10.058484
10.05674
10.054575
10.051903
10.048644
10.044744
10.04018
10.034873
10.028647
10.021494
10.013617
10.008044
10.004283
10.001826
10.000192
10.000802
10.008113
10.016064
1529.1964
1947.8927
1034.4135
627.8261
434.75101
314.81552
230.92658
180.1855
141.88228
117.75609
98.819874
85.186809
74.034976
65.091304
57.672358
51.487836
46.270802
41.842542
38.058002
34.79614
31.968897
29.507968
27.351392
25.451347
23.767331
22.269163
20.930102
19.730068
18.652501
17.685218
16.815726
16.031889
15.325271
14.688114
14.114814
13.600037
13.139221
12.728021
12.362048
12.036674
11.749964
11.497939
11.277026
11.083441
10.916095
10.77156
10.647018
10.540262
10.449163
10.372094
10.306951
10.25234
10.206784
10.169111
10.138234
10.113179
10.093204
10.077873
10.067019
10.060565
10.058105
10.056922
10.05524
10.053232
10.050822
10.047928
10.04446
10.040358
10.035595
10.03012
10.023746
10.016484
10.0092
10.004213
10.000977
9.998993
9.9977098
9.9984678
10.005319
10.011892
1543.0658
1971.5357
1035.2382
624.80469
430.903
312.22685
228.29748
178.73949
140.4038
116.86955
98.050593
84.519769
73.399645
64.476995
57.085974
50.929363
45.741017
41.341104
37.584085
34.350589
31.550381
29.11607
26.985685
25.107631
23.447971
21.973502
20.657095
19.478668
18.421212
17.472806
16.621561
15.854978
15.164734
14.542834
13.983752
13.482156
13.033539
12.633645
12.278354
11.963639
11.685632
11.441561
11.228219
11.041283
10.879734
10.740484
10.620655
10.518053
10.430472
10.356532
10.294061
10.241753
10.19815
10.162123
10.132643
10.108759
10.089723
10.075076
10.06464
10.058333
10.055681
10.05414
10.052163
10.049868
10.047192
10.044053
10.04036
10.03604
10.03106
10.025396
10.018895
10.011468
10.004983
10.000594
9.9978781
9.9963544
9.9954707
9.9963698
10.00255
10.008529
1552.5469
1995.9262
1031.992
620.98262
425.95604
308.9461
224.6677
176.89572
138.50739
115.80484
97.158286
83.703479
72.634146
63.741965
56.390087
50.269943
45.118912
40.755701
37.029081
33.830077
31.062872
28.660576
26.562174
24.714973
23.084139
21.637554
20.347618
19.194392
18.160391
17.233813
16.403562
15.656781
14.985327
14.380916
13.838114
13.35159
12.916892
12.529851
12.186403
11.882501
11.614531
11.379431
11.174597
10.9958
10.840674
10.707204
10.592622
10.494565
10.410791
10.340211
10.280597
10.230738
10.189206
10.154912
10.126893
10.104236
10.086193
10.072279
10.062298
10.056184
10.053427
10.051507
10.049217
10.046618
10.043657
10.040257
10.036324
10.031777
10.026568
10.020691
10.014103
10.006698
10.001008
9.9972292
9.995021
9.9939389
9.9934892
9.9945872
9.9999693
10.005202
1567.6058
2019.0671
1022.387
616.09912
419.29603
305.25592
220.27441
174.6136
136.66098
114.54687
96.133162
82.732614
71.730446
62.87821
55.576567
49.496586
44.390439
40.072787
36.391177
33.235264
30.50874
28.144913
26.084177
24.272334
22.675091
21.260742
20.001283
18.877045
17.870063
16.968451
16.162028
15.437723
14.787597
14.203012
13.678631
13.209122
12.790081
12.41743
12.087262
11.79559
11.538718
11.313443
11.117686
10.946922
10.798923
10.671696
10.563223
10.470064
10.390402
10.323363
10.266751
10.219448
10.18007
10.147566
10.121046
10.099648
10.082631
10.06949
10.059992
10.054087
10.051283
10.048977
10.046361
10.043445
10.040186
10.036513
10.032331
10.027552
10.022115
10.016007
10.009324
10.002238
9.9973101
9.994145
9.9924327
9.99177
9.9917465
9.9930692
9.9977053
10.002171
1579.7226
2040.1693
1012.1295
610.17159
410.98454
301.15983
215.73133
172.10999
134.69074
113.10979
94.962056
81.600153
70.67664
61.864958
54.622568
48.604032
43.556608
39.29605
35.668177
32.563972
29.885829
27.567254
25.550398
23.779745
22.221149
20.843582
19.618848
18.527602
17.551422
16.678142
15.898174
15.199088
14.572898
14.010518
13.506715
13.05615
12.654477
12.297683
11.982034
11.703636
11.458881
11.244361
11.058376
10.89637
10.755963
10.635133
10.532423
10.444514
10.369544
10.306179
10.252721
10.208045
10.17087
10.140182
10.115169
10.095036
10.079058
10.066716
10.057724
10.052025
10.049194
10.046503
10.043554
10.040315
10.036751
10.032797
10.028361
10.023348
10.017692
10.011362
10.004523
9.9981207
9.9939199
9.9913627
9.9901344
9.9898702
9.9902471
9.9917519
9.9958126
9.9997631
1592.1199
2060.5711
997.31776
602.59444
401.41054
296.6423
210.99212
169.35764
132.69842
111.4937
93.617165
80.275106
69.434332
60.695033
53.530981
47.588378
42.613215
38.421647
34.858048
31.815015
29.193705
26.927564
24.961017
23.237576
21.72314
20.386764
19.201256
18.147239
17.205848
16.364625
15.612459
14.941361
14.341771
13.804026
13.322986
12.893296
12.510688
12.171193
11.871288
11.607195
11.375437
11.173186
10.99745
10.844597
10.71221
10.598141
10.501409
10.418774
10.348167
10.288601
10.238641
10.196674
10.161727
10.132855
10.10933
10.090442
10.075491
10.063956
10.055495
10.049988
10.047103
10.044042
10.040757
10.037195
10.033323
10.029084
10.024393
10.019148
10.013283
10.006789
9.9997858
9.9943666
9.9908583
9.9888929
9.988138
9.9882536
9.9890363
9.9907692
9.9943124
9.9977661
1604.3887
2078.8908
978.67009
594.13635
391.54814
291.72523
206.18268
166.40571
130.65087
109.67744
92.032411
78.739772
68.007508
59.361533
52.294572
46.445244
41.556827
37.447518
33.959494
30.987412
28.432074
26.226292
24.316381
22.646608
21.182497
19.890093
18.748481
17.736151
16.833655
16.028766
15.310325
14.669899
14.099374
13.588492
13.132145
12.72495
12.362773
12.041659
11.75834
11.509247
11.290821
11.100156
10.935151
10.791816
10.667786
10.561185
10.47041
10.39316
10.327137
10.271259
10.224406
10.185419
10.152744
10.125676
10.103595
10.085906
10.071948
10.061204
10.053301
10.047982
10.044961
10.041553
10.037936
10.034054
10.029877
10.025354
10.02041
10.014944
10.008871
10.002291
9.9956062
9.9909904
9.9881391
9.9867374
9.9864482
9.986923
9.9880515
9.9900441
9.9933034
9.9965095
1616.5036
2091.2966
956.11592
585.10582
381.18672
286.44885
201.37941
163.25815
128.47741
107.56419
90.190162
76.981963
66.3823
57.855374
50.906599
45.169428
40.384092
36.371144
32.971359
30.080317
27.600915
25.46447
23.615366
22.005898
20.599166
19.360481
18.268058
17.302204
16.442862
15.677882
14.995912
14.388702
13.849051
13.366895
12.936857
12.553452
12.212785
11.910872
11.644691
11.411034
11.206433
11.027867
10.873604
10.739829
10.624074
10.524288
10.439473
10.367552
10.306512
10.254434
10.210566
10.174142
10.143959
10.118715
10.098026
10.081469
10.06845
10.058451
10.051119
10.046031
10.042732
10.039
10.03506
10.030867
10.026392
10.021589
10.016394
10.010726
10.004482
9.997777
9.9919054
9.9880227
9.985771
9.9848915
9.9850563
9.9858809
9.9872903
9.9895608
9.9927426
9.9958476
1628.6787
2092.4457
929.85147
575.43662
370.44336
280.84084
196.65646
159.83338
126.05605
105.15909
88.06174
74.982986
64.54553
56.165927
49.359346
43.75562
39.091946
35.190278
31.893174
29.090905
26.697809
24.64104
22.867112
21.326038
19.983653
18.804375
17.766454
16.851186
16.038878
15.317223
14.674668
14.102894
13.594076
13.141925
12.739372
12.380643
12.062221
11.780079
11.531342
11.313302
11.122618
10.956999
10.813368
10.689032
10.581633
10.488838
10.40976
10.342781
10.286101
10.238213
10.197341
10.163279
10.135206
10.111986
10.092675
10.077169
10.065024
10.055696
10.048898
10.044135
10.040391
10.036355
10.032105
10.027614
10.022853
10.017781
10.012338
10.006474
10.00016
9.9935535
9.9886865
9.9854756
9.9837617
9.9833488
9.9839412
9.9851108
9.9867394
9.9892753
9.9926251
9.995713
1641.0227
2070.8884
900.13967
565.15826
359.35478
274.90676
192.00723
156.0029
123.30892
102.4165
85.616582
72.71949
62.480639
54.281713
47.645236
42.198324
37.677936
33.899457
30.721193
28.028825
25.736204
23.770477
22.080625
20.616184
19.344694
18.231042
17.252658
16.389833
15.627554
14.951788
14.350646
13.816419
13.341546
12.919819
12.545241
12.211449
11.915419
11.653153
11.421716
11.21912
11.041761
10.887696
10.754572
10.639429
10.540218
10.454918
10.381503
10.319275
10.266556
10.222329
10.184785
10.15301
10.126803
10.105318
10.087549
10.073033
10.061695
10.052964
10.04658
10.042073
10.037934
10.033599
10.029058
10.024284
10.019251
10.013925
10.008251
10.002187
9.99585
9.9899728
9.9859297
9.983351
9.9821165
9.9821061
9.9830747
9.9845796
9.9864075
9.9891565
9.9928772
9.9960087
1653.6195
2035.6031
869.15146
554.31607
347.97695
268.55871
187.12252
151.73768
120.1207
99.287254
82.819655
70.165781
60.171093
52.192886
45.757895
40.48869
36.135569
32.511625
29.473189
26.906624
24.728966
22.866066
21.269652
19.889729
18.692682
17.649325
16.735032
15.930368
15.220057
14.591827
14.033156
13.536892
13.095823
12.704248
12.357204
12.048049
11.774033
11.531447
11.317018
11.129481
10.965208
10.822272
10.69908
10.592655
10.500917
10.42221
10.354847
10.297206
10.248177
10.207251
10.172627
10.143387
10.118882
10.098928
10.0825
10.069079
10.058476
10.050295
10.04421
10.039838
10.035351
10.030728
10.025912
10.020874
10.015584
10.010018
10.004144
9.9979448
9.9916381
9.9869087
9.9836241
9.9816335
9.9808336
9.9811645
9.9824341
9.9842367
9.9862933
9.9892108
9.9932139
9.9966437
1666.2952
2004.4175
837.58691
542.83369
336.31074
261.25531
182.07409
146.9314
116.37374
95.710741
79.633978
67.296796
57.601496
49.891965
43.686328
38.640298
34.48855
31.044331
28.167732
25.744546
23.695312
21.946364
20.448379
19.159867
18.045214
17.075506
16.227459
15.482104
14.824287
14.243562
13.727328
13.268759
12.86111
12.498786
12.177017
11.891686
11.638816
11.415313
11.218328
11.045155
10.893516
10.761132
10.647176
10.548986
10.464304
10.391593
10.329377
10.276296
10.231112
10.193168
10.161194
10.134188
10.111514
10.092892
10.077683
10.065276
10.055357
10.047713
10.041858
10.037427
10.03265
10.027751
10.022674
10.017391
10.011867
10.006076
10.000018
9.9938001
9.9881878
9.9843028
9.9817278
9.980289
9.9798955
9.9805216
9.9820123
9.9840342
9.9863354
9.9894047
9.9934557
9.9971911
1678.5498
1956.4272
804.94246
530.40518
324.25113
252.75888
176.66184
141.46197
111.95402
91.62318
76.025347
64.09272
54.755439
47.367556
41.459279
36.678895
32.763785
29.526421
26.832005
24.568123
22.655073
21.02961
19.640352
18.446902
17.416423
16.521557
15.740023
15.053842
14.447716
13.91178
13.436758
13.014575
12.639116
12.305336
12.008933
11.745996
11.513007
11.306956
11.125291
10.965738
10.82623
10.70473
10.599307
10.508697
10.430571
10.363453
10.305984
10.256975
10.215356
10.180156
10.150581
10.125645
10.1047
10.087252
10.073085
10.061523
10.052308
10.045189
10.039608
10.034867
10.02985
10.024691
10.019365
10.013854
10.008119
10.002135
9.9959518
9.9898414
9.9853108
9.9821474
9.9801888
9.9792617
9.9792611
9.9801534
9.9818042
9.9839382
9.9864116
9.9896691
9.9937199
9.9976794
1689.5805
1894.5408
770.64629
516.527
311.02757
242.89965
170.56293
135.18302
106.75869
86.96711
71.971772
60.539492
51.655893
44.672833
39.117582
34.646731
31.001844
27.994487
25.494747
23.40271
21.638936
20.141908
18.86371
17.76649
16.819822
15.99848
15.281324
14.650807
14.095148
13.603487
13.167434
12.779677
12.434458
12.127153
11.854033
11.611818
11.397322
11.207625
11.040342
10.893235
10.764464
10.65242
10.555706
10.471959
10.399814
10.337809
10.284661
10.239258
10.200644
10.16827
10.140805
10.11768
10.098259
10.082058
10.068811
10.057974
10.049314
10.042619
10.03728
10.032212
10.026979
10.021587
10.016028
10.010294
10.004369
9.9982291
9.992006
9.9866952
9.9829422
9.9804196
9.9789692
9.9784821
9.9788667
9.9800025
9.981785
9.9839721
9.9865432
9.9899539
9.9940091
9.9980564
1698.1783
1836.6661
733.73722
500.58944
296.9127
231.46427
163.30442
127.92933
100.71742
81.721506
67.477035
56.686922
48.371841
41.871926
36.724184
32.59867
29.249802
26.48568
24.196081
22.282116
20.67008
19.302632
18.134915
17.131875
16.265878
15.514432
14.857154
14.280663
13.772009
13.321271
12.921327
12.56543
12.248265
11.965487
11.713669
11.490112
11.292357
11.117454
10.963317
10.827775
10.708975
10.60596
10.51635
10.438868
10.37208
10.314693
10.265488
10.223439
10.187689
10.157502
10.131943
10.110409
10.092345
10.077277
10.064863
10.054667
10.046451
10.040038
10.034847
10.029509
10.024076
10.018484
10.012719
10.00677
10.000664
9.9944765
9.9884608
9.9841173
9.9810497
9.9790941
9.9780693
9.9778982
9.9786427
9.979997
9.9818958
9.9841197
9.9867476
9.990252
9.9943213
9.998339
1701.5669
1775.6661
693.98577
480.85905
281.68508
218.13362
154.4186
119.57793
93.846357
75.948565
62.63688
52.651156
45.004887
39.053554
34.353747
30.595529
27.5522
25.045056
22.967744
21.231764
19.769038
18.527393
17.465969
16.5527
15.762324
15.074823
14.474031
13.946386
13.480903
13.067438
12.700129
12.373008
12.081277
11.820921
11.588596
11.381692
11.198838
11.037032
10.894502
10.769415
10.659969
10.564434
10.481384
10.409459
10.347403
10.294084
10.248403
10.209245
10.176138
10.147929
10.124023
10.103845
10.086935
10.072903
10.061228
10.051623
10.043812
10.037562
10.032373
10.026821
10.021194
10.015424
10.009497
10.003381
9.997079
9.9908127
9.9856943
9.9820151
9.9795411
9.9780935
9.9774985
9.9775518
9.9785388
9.9800774
9.9820743
9.9843504
9.9870306
9.990549
9.994586
9.998484
1694.9928
1708.8842
650.85579
455.00778
265.16815
202.57444
143.68627
110.1783
86.31667
69.790108
57.644272
48.582488
41.674519
36.311742
32.081562
28.699045
25.960315
23.707721
21.837565
20.272367
18.951071
17.827288
16.864716
16.034766
15.314774
14.686761
14.136375
13.651862
13.223486
12.843359
12.504962
12.203222
11.93389
11.693472
11.47901
11.287966
11.118159
10.967781
10.835095
10.718551
10.616674
10.527951
10.450703
10.383749
10.325864
10.276025
10.233564
10.197124
10.166001
10.139547
10.117113
10.098105
10.082244
10.068941
10.057894
10.048798
10.041417
10.035339
10.029922
10.024226
10.018419
10.012468
10.006387
10.000186
9.9939122
9.9878336
9.9835075
9.9803855
9.9783605
9.9772786
9.9770189
9.9774631
9.9785446
9.9802145
9.9822763
9.9846131
9.98737
9.9908868
9.9948578
9.9986208
1672.4327
1631.1648
604.58606
422.32699
247.3883
184.61792
131.36611
100.0815
78.490258
63.575081
52.718987
44.643121
38.500351
33.736133
29.97604
26.962679
24.515488
22.504048
20.827716
19.420092
18.227837
17.210518
16.336562
15.580979
14.923737
14.348719
13.843128
13.397083
13.001936
12.650741
12.337501
12.05773
11.807624
11.584074
11.384462
11.206544
11.048344
10.908086
10.784149
10.675037
10.579445
10.496546
10.424333
10.361734
10.30764
10.261041
10.221025
10.186762
10.157394
10.132362
10.111257
10.093331
10.078195
10.065501
10.054938
10.046266
10.039122
10.033173
10.027584
10.021781
10.01585
10.009753
10.003492
9.9971087
9.9908288
9.9856209
9.9818392
9.9792068
9.9775548
9.9767536
9.9767268
9.9774421
9.9786524
9.9803995
9.9824924
9.9848703
9.9876908
9.9911944
9.9950826
9.9987192
1625.7423
1538.5013
556.37283
383.59916
229.4598
164.57483
118.17284
89.921175
70.820593
57.620367
48.078673
40.987259
35.594445
31.407618
28.095411
25.430933
23.255885
21.457884
19.955381
18.687393
17.608495
16.683883
15.886469
15.194808
14.591619
14.062651
13.595449
13.18207
12.81482
12.488249
12.196371
11.935254
11.701485
11.492273
11.305257
11.138415
10.989961
10.85829
10.741926
10.639491
10.549695
10.471317
10.403177
10.34399
10.29278
10.248583
10.210584
10.178232
10.150468
10.126755
10.106553
10.089414
10.074917
10.062695
10.052548
10.044088
10.037089
10.031176
10.025424
10.019522
10.013508
10.007354
10.001056
9.994662
9.9884769
9.9839332
9.9806091
9.9783797
9.977066
9.9765112
9.9764995
9.9775137
9.9788094
9.9806053
9.9827147
9.9851199
9.9879737
9.9914406
9.9952433
9.9987366
1546.9556
1435.5649
507.34992
343.60456
205.53286
145.30119
105.03701
80.371729
63.750326
52.229323
43.931553
37.764699
33.06341
29.399092
26.485982
24.129708
22.194943
20.585556
19.232066
18.083507
17.100842
16.254345
15.520729
14.881519
14.32183
13.829525
13.394607
13.008796
12.665368
12.358729
12.084241
11.838253
11.617703
11.42006
11.24318
11.085212
10.944514
10.819591
10.709051
10.611583
10.525962
10.451109
10.386311
10.329964
10.281206
10.239124
10.202907
10.171821
10.145199
10.122399
10.102939
10.086389
10.072461
10.060662
10.050737
10.042431
10.035491
10.029547
10.023627
10.017588
10.011448
10.005193
9.998842
9.9925141
9.9868057
9.9827019
9.9797326
9.9777832
9.9767078
9.9763687
9.9767061
9.9775995
9.9789961
9.980804
9.9829205
9.9853387
9.9881857
9.9915669
9.9952574
9.9986792
1438.8362
1390.8386
461.52689
296.08101
181.81567
127.26821
93.191777
71.929249
57.640388
47.68703
40.489546
35.122368
31.007857
27.778838
25.193358
23.087495
21.3471
19.89053
18.657208
17.604951
16.700098
15.916998
15.235395
14.639094
14.114956
13.652243
13.242065
12.877106
12.551428
12.260558
11.999576
11.765295
11.554906
11.366105
11.196933
11.045694
10.910884
10.79113
10.685151
10.591734
10.509707
10.437923
10.375259
10.320784
10.273552
10.232718
10.197511
10.16727
10.141526
10.119446
10.100593
10.084526
10.070873
10.059314
10.049563
10.041365
10.034466
10.028489
10.022445
10.016285
10.010013
10.003632
9.9971873
9.9908936
9.9856816
9.9818924
9.9792123
9.977497
9.9766014
9.9763348
9.9768153
9.977767
9.9792015
9.98101
9.9831276
9.9855484
9.9883564
9.9916061
9.9951367
9.9985313
1312.4215
1218.9827
421.96567
253.86589
159.82583
112.26493
83.403766
65.119513
52.815412
44.187685
37.901378
33.170883
29.511039
26.613019
24.272808
22.351578
20.752189
19.405008
18.258997
17.275944
16.426809
15.688984
15.044567
14.479097
13.980698
13.539491
13.147445
12.797817
12.485042
12.204523
11.952496
11.725823
11.521922
11.338631
11.174115
11.026781
10.89521
10.778106
10.674264
10.582551
10.501949
10.431725
10.370324
10.316911
10.270566
10.230471
10.19587
10.16608
10.140493
10.118572
10.099832
10.083854
10.070268
10.058754
10.049035
10.040858
10.033971
10.027993
10.021933
10.015739
10.009415
10.002959
9.9964283
9.9900923
9.9851136
9.9814775
9.9789387
9.9773545
9.9766071
9.9764377
9.9769388
9.9779421
9.9793924
9.9812099
9.9833417
9.9857776
9.9885534
9.9916832
9.99506
9.998424
1201.9985
1095.4962
389.70227
223.37912
143.40717
101.23809
76.156398
60.159042
49.363804
41.728978
36.110073
31.841542
28.508733
25.847331
23.681506
21.890819
20.390415
19.11908
18.0317
17.094365
16.281092
15.571584
14.949703
14.402484
13.919801
13.491335
13.109831
12.768917
12.463358
12.188799
11.94165
11.71895
11.518251
11.337509
11.17499
11.02919
10.898768
10.782497
10.679226
10.587858
10.507339
10.436655
10.374846
10.320979
10.274184
10.233651
10.198633
10.168455
10.142507
10.120244
10.101187
10.084913
10.071052
10.059281
10.049322
10.040924
10.03384
10.027732
10.021772
10.015646
10.009414
10.003061
9.9966359
9.9903726
9.9852917
9.9816174
9.9790483
9.9774465
9.9766925
9.9765268
9.9770421
9.9780458
9.979494
9.981314
9.9834628
9.9859202
9.9886813
9.9917252
9.9949919
9.9983508
1156.1783
1041.6995
365.87805
206.46516
132.62586
93.732739
70.73665
56.200937
46.410494
39.477032
34.358912
30.453269
27.390879
24.935374
22.929472
21.265058
19.865733
18.676223
17.655704
16.773448
16.0059
15.334654
14.745033
14.225097
13.764957
13.356334
12.992215
12.666691
12.374798
12.112394
11.876043
11.66291
11.470648
11.297307
11.14124
11.001028
10.875414
10.763251
10.663468
10.575046
10.496999
10.428378
10.368268
10.315798
10.270141
10.23053
10.196254
10.166666
10.141182
10.11928
10.100495
10.084421
10.0707
10.05902
10.049108
10.040722
10.033622
10.027471
10.021447
10.015267
10.008983
10.002585
9.9961285
9.9898868
9.9850364
9.9814689
9.9789777
9.9774142
9.9766512
9.9764486
9.9770635
9.9780416
9.9794872
9.9813034
9.983458
9.9859229
9.988678
9.9916941
9.9949234
9.9983037
37003.299
79683.917
39449.998
10032.482
1234.691
612.76744
435.98632
350.95965
289.16414
234.95025
191.70282
158.83592
134.32141
116.07995
102.11701
90.757513
81.123696
72.865294
65.774612
59.656325
54.336852
49.679775
45.579668
41.951219
38.729297
35.849347
33.266031
30.939429
28.837718
26.93577
25.212167
23.64783
22.226093
20.932277
19.754853
18.684138
17.711417
16.828973
16.029757
15.307348
14.656154
14.070632
13.545732
13.076891
12.659628
12.28972
11.963346
11.676481
11.425446
11.206893
11.017549
10.854297
10.714157
10.594603
10.493115
10.407433
10.337064
10.281988
10.242263
10.220656
10.213456
10.21133
10.2091
10.206066
10.202577
10.198667
10.194149
10.187413
10.177843
10.166694
10.151464
10.137169
10.10797
10.09202
10.070112
10.070331
10.038726
10.056564
9.9949621
10.01966
22214.847
69622.047
27764.05
4616.0181
940.91759
533.05595
399.94055
321.93718
263.37586
212.21624
174.20208
145.53067
124.36763
108.54542
96.167942
85.820383
76.958117
69.354433
62.812664
57.143257
52.191214
47.839051
43.994422
40.581425
37.538215
34.81171
32.360452
30.147108
28.143575
26.327251
24.678376
23.179268
21.814572
20.570776
19.437566
18.405981
17.46789
16.61612
15.84406
15.145702
14.515819
13.949101
13.440803
12.986601
12.58219
12.223547
11.907025
11.628702
11.385074
11.172922
10.989077
10.830523
10.694387
10.578249
10.479675
10.396433
10.327587
10.27384
10.235349
10.214992
10.208408
10.206455
10.204258
10.201294
10.197897
10.194073
10.189757
10.18375
10.174868
10.16422
10.14956
10.135479
10.107215
10.091548
10.06977
10.070065
10.038763
10.057057
9.9955146
10.020208
24204.282
49270.541
16418.328
2355.5443
833.06984
506.70416
388.38604
306.66573
250.91406
201.51755
166.73957
139.60906
119.84639
104.92747
93.130315
83.176172
74.669165
67.380032
61.102199
55.652581
50.886701
46.694443
42.987778
39.693992
36.752263
34.115292
31.742875
29.598627
27.656474
25.894729
24.294324
22.83825
21.511828
20.302132
19.199539
18.195396
17.281894
16.452171
15.699849
15.019164
14.405105
13.852482
13.356755
12.913738
12.519232
12.169349
11.86055
11.58898
11.351259
11.144254
10.964864
10.81015
10.677332
10.564082
10.467886
10.386682
10.319165
10.266442
10.228899
10.2095
10.203373
10.201573
10.199428
10.196548
10.193247
10.189514
10.185253
10.179952
10.171792
10.161672
10.147605
10.133755
10.106483
10.091001
10.069316
10.069703
10.038695
10.057445
9.9960946
10.02078
32017.723
27497.545
8499.3958
1496.1362
761.25693
483.05015
374.74197
291.75707
239.7169
190.97931
159.72967
133.7782
115.51924
101.44951
90.226238
80.662392
72.502866
65.509156
59.477901
54.234355
49.643032
45.600396
42.022662
38.840351
35.995871
33.441322
31.142662
29.063625
27.1797
25.469894
23.915806
22.501031
21.211502
20.034826
18.962029
17.984691
17.095311
16.287302
15.554494
14.891348
14.293045
13.7545
13.271371
12.839594
12.455066
12.114031
11.813052
11.548328
11.316612
11.114848
10.940002
10.789215
10.659862
10.549476
10.455732
10.376623
10.310624
10.258948
10.222387
10.203954
10.1983
10.196658
10.19457
10.19178
10.18858
10.184942
10.180777
10.175914
10.168506
10.15894
10.145489
10.131889
10.105615
10.090382
10.068744
10.06926
10.03852
10.057743
9.9966936
10.021357
36414.452
20135.128
5460.4572
1269.5519
723.38503
461.99123
363.93154
279.38239
231.40529
182.84371
154.64983
129.14721
112.20884
98.67159
87.874843
78.60274
70.71897
63.955538
58.11715
53.036105
48.583834
44.661475
41.18822
38.09697
35.332085
32.848261
30.609548
28.585487
26.751097
25.085799
23.571695
22.192835
20.93563
19.788102
18.74181
17.788454
16.920798
16.132469
15.417448
14.770384
14.186609
13.661106
13.189713
12.768454
12.393305
12.060624
11.767057
11.508849
11.282872
11.086133
10.915663
10.768684
10.642655
10.535063
10.44371
10.366647
10.302258
10.251567
10.21595
10.198292
10.193222
10.191732
10.189708
10.187015
10.183919
10.180379
10.176305
10.171673
10.165043
10.156056
10.14324
10.129907
10.104633
10.089686
10.068086
10.068733
10.038257
10.057947
9.9973069
10.021922
38536.212
16975.773
3893.1925
1187.8584
698.59741
442.43974
356.02748
269.20932
224.86324
176.11826
150.59552
125.15556
109.45217
96.252046
85.826693
76.797412
69.151282
62.582401
56.908281
51.966575
47.634216
43.815974
40.433476
37.421619
34.72655
32.304357
30.119193
28.143892
26.353553
24.728074
23.24992
21.90351
20.675662
19.554744
18.532786
17.601537
16.754014
15.984006
15.285622
14.653672
14.083609
13.570466
13.110247
12.699037
12.332884
12.008247
11.721839
11.469944
11.24955
11.057717
10.891546
10.748369
10.62552
10.520679
10.431689
10.356654
10.29398
10.244243
10.209551
10.192711
10.188151
10.186792
10.18484
10.182249
10.179261
10.17582
10.171842
10.167266
10.16139
10.153007
10.140844
10.127796
10.103509
10.088866
10.067334
10.068108
10.037926
10.05806
9.9979293
10.022467
39866.956
14166.426
3115.7358
1138.1563
681.27896
428.32486
350.20242
260.86891
219.70933
170.66525
147.33409
121.75389
107.16443
94.151299
84.049838
75.216847
67.77297
61.367727
55.833116
51.010489
46.781284
43.053074
39.749426
36.806874
34.173006
31.805218
29.669003
27.73582
25.984565
24.394743
22.948956
21.631903
20.430744
19.334137
18.334527
17.423656
16.594784
15.841825
15.158989
14.541229
13.984092
13.482646
13.033049
12.631427
12.273886
11.956981
11.677476
11.431688
11.216719
11.029684
10.86779
10.728204
10.608491
10.506359
10.419702
10.346672
10.285751
10.236991
10.203205
10.187211
10.183084
10.181849
10.179974