/*--------------------------------*- C++ -*----------------------------------*\
| =========                 |                                                 |
| \\      /  F ield         | OpenFOAM: The Open Source CFD Toolbox           |
|  \\    /   O peration     | Version:  2512                                  |
|   \\  /    A nd           | Website:  www.openfoam.com                      |
|    \\/     M anipulation  |                                                 |
\*---------------------------------------------------------------------------*/
FoamFile
{
    version     2.0;
    format      ascii;
    arch        "LSB;label=32;scalar=64";
    class       volScalarField;
    location    "0.142";
    object      p;
}
// * * * * * * * * * * * * * * * * * * * * * * * * * * * * * * * * * * * * * //

dimensions      [1 -1 -2 0 0 0 0];

internalField   nonuniform List<scalar> 
16000
(
89630.357
89756.324
89768.158
89902.463
89928.735
90055.87
90106.463
90223.037
90296.897
90407.898
90499.971
90610.926
90717.063
90832.358
90949.558
91072.227
91198.983
91330.433
91466.457
91607.146
91752.513
91902.565
92057.287
92216.638
92380.554
92548.941
92721.675
92898.601
93079.531
93264.243
93452.479
93643.947
93838.319
94035.235
94234.301
94435.092
94637.159
94840.024
95043.196
95246.165
95448.416
95649.427
95848.683
96045.676
96239.916
96430.932
96618.279
96801.546
96980.354
97154.364
97323.277
97486.835
97644.824
97797.07
97943.441
98083.845
98218.227
98346.566
98468.876
98585.2
98695.608
98800.192
98899.067
98992.365
99080.235
99162.84
99240.353
99312.962
99380.859
99444.244
99503.325
99558.318
99609.448
99656.961
99701.072
99742.324
99782.401
99805.065
99883.828
99818.053
89262.725
89405.671
89415.058
89561.468
89589.36
89727.478
89780.464
89908.369
89986.114
90107.279
90205.816
90325.781
90440.312
90564.555
90691.107
90823.358
90960.111
91101.853
91248.506
91400.125
91556.709
91718.237
91884.664
92055.915
92231.886
92412.44
92597.408
92786.584
92979.725
93176.553
93376.75
93579.959
93785.789
93993.813
94203.572
94414.577
94626.317
94838.258
95049.854
95260.554
95469.802
95677.053
95881.773
96083.447
96281.589
96475.743
96665.49
96850.454
97030.299
97204.737
97373.524
97536.464
97693.406
97844.239
97988.896
98127.347
98259.596
98385.677
98505.654
98619.617
98727.674
98829.951
98926.591
99017.748
99103.59
99184.291
99260.032
99331
99397.387
99459.389
99517.208
99571.045
99621.107
99667.63
99710.916
99751.49
99788.069
99820.947
99875.382
99836.171
88927.69
89086.111
89095.32
89254.956
89282.987
89434.854
89489.61
89629.858
89712.55
89844.281
89950.657
90080.285
90204.468
90338.666
90475.748
90618.755
90766.693
90919.924
91078.385
91242.09
91411.008
91585.085
91764.239
91948.354
92137.28
92330.832
92528.787
92730.878
92936.801
93146.208
93358.708
93573.873
93791.233
94010.286
94230.498
94451.309
94672.14
94892.399
95111.488
95328.814
95543.793
95755.86
95964.476
96169.136
96369.374
96564.767
96754.94
96939.571
97118.387
97291.168
97457.745
97617.999
97771.853
97919.278
98060.278
98194.894
98323.198
98445.284
98561.271
98671.294
98775.506
98874.066
98967.142
99054.913
99137.56
99215.266
99288.219
99356.607
99420.616
99480.436
99536.26
99588.268
99636.652
99681.667
99723.601
99762.514
99797.675
99833.47
99873.183
99854.521
88629.391
88798.681
88808.524
88983.634
89011.161
89179.329
89236.381
89390.97
89479.525
89623.358
89739.031
89879.649
90015.064
90160.622
90309.687
90464.847
90625.319
90791.344
90962.867
91139.868
91322.29
91510.045
91703.011
91901.025
92103.886
92311.348
92523.118
92738.857
92958.179
93180.65
93405.792
93633.084
93861.968
94091.852
94322.117
94552.126
94781.229
95008.777
95234.127
95456.65
95675.747
95890.851
96101.437
96307.029
96507.203
96701.594
96889.895
97071.859
97247.3
97416.086
97578.141
97733.437
97881.991
98023.86
98159.132
98287.927
98410.386
98526.669
98636.949
98741.41
98840.245
98933.646
99021.808
99104.926
99183.195
99256.805
99325.945
99390.799
99451.546
99508.369
99561.441
99610.918
99656.987
99699.908
99739.822
99776.574
99810.603
99845.575
99876.479
99871.847
88371.001
88555.14
88561.887
88755.659
88782.099
88968.553
89027.765
89198.442
89294.062
89451.351
89578.039
89730.761
89878.837
90036.909
90199.118
90367.562
90541.676
90721.618
90907.335
91098.779
91295.86
91498.443
91706.351
91919.356
92137.181
92359.497
92585.917
92816.006
93049.272
93285.174
93523.126
93762.499
94002.629
94242.825
94482.379
94720.574
94956.696
95190.045
95419.945
95645.755
95866.878
96082.772
96292.953
96497.001
96694.566
96885.367
97069.195
97245.903
97415.414
97577.705
97732.809
97880.804
98021.809
98155.977
98283.483
98404.528
98519.324
98628.092
98731.059
98828.453
98920.504
99007.432
99089.452
99166.773
99239.598
99308.12
99372.523
99432.985
99489.676
99542.763
99592.397
99638.711
99681.894
99722.171
99759.491
99793.782
99826.344
99858.704
99883.346
99889.719
88155.374
88357.054
88361.965
88576.648
88602.125
88808.871
88870.478
89058.992
89162.885
89334.309
89473.173
89638.477
89800.138
89971.599
90147.973
90330.869
90519.897
90715.129
90916.483
91123.854
91337.085
91555.966
91780.231
92009.558
92243.562
92481.8
92723.767
92968.9
93216.578
93466.131
93716.843
93967.964
94218.715
94468.302
94715.929
94960.808
95202.173
95439.295
95671.489
95898.131
96118.66
96332.591
96539.517
96739.115
96931.14
97115.431
97291.901
97460.536
97621.385
97774.554
97920.198
98058.511
98189.719
98314.07
98431.83
98543.275
98648.683
98748.332
98842.495
98931.438
99015.419
99094.679
99169.447
99239.941
99306.363
99368.904
99427.741
99483.038
99534.953
99583.634
99629.203
99671.775
99711.544
99748.649
99782.865
99814.421
99845.052
99873.722
99893.333
99908.873
87982.7
88205.241
88207.454
88446.762
88471.335
88702.343
88766.98
88974.763
89086.836
89271.851
89424.006
89602.732
89779.537
89966.104
90158.519
90357.882
90563.884
90776.487
90995.541
91220.851
91452.165
91689.166
91931.472
92178.632
92430.126
92685.367
92943.698
93204.404
93466.71
93729.797
93992.807
94254.857
94515.054
94772.507
95026.345
95275.731
95519.876
95758.055
95989.614
96213.985
96430.691
96639.351
96839.68
97031.49
97214.684
97389.253
97555.264
97712.855
97862.222
98003.61
98137.302
98263.611
98382.867
98495.412
98601.592
98701.749
98796.22
98885.327
98969.38
99048.67
99123.474
99194.046
99260.62
99323.413
99382.622
99438.428
99490.996
99540.474
99587.002
99630.701
99671.666
99710.002
99745.891
99779.351
99810.046
99838.635
99866.832
99890.954
99906.337
99930.206
87847.404
88094.455
88092.471
88361.409
88382.784
88640.205
88707.943
88934.938
89058.999
89260.413
89429.75
89624.88
89819.959
90024.62
90235.92
90454.535
90680.194
90912.76
91151.992
91397.588
91649.173
91906.293
92168.416
92434.927
92705.136
92978.275
93253.507
93529.935
93806.609
94082.547
94356.741
94628.181
94895.871
95158.846
95416.191
95667.057
95910.678
96146.385
96373.612
96591.906
96800.93
97000.461
97190.387
97370.701
97541.493
97702.934
97855.271
97998.808
98133.896
98260.922
98380.296
98492.439
98597.777
98696.734
98789.72
98877.132
98959.347
99036.72
99109.58
99178.236
99242.968
99304.032
99361.658
99416.054
99467.406
99515.878
99561.617
99604.751
99645.398
99683.65
99719.572
99753.267
99784.887
99814.294
99841.147
99866.598
99891.861
99910.736
99922.589
99954.229
87748.644
88024.153
88017.856
88323.092
88338.863
88625.173
88698.913
88948.181
89089.244
89309.322
89499.334
89713.666
89929.998
90155.794
90388.943
90629.77
90877.977
91133.296
91395.361
91663.718
91937.825
92217.046
92500.65
92787.816
93077.638
93369.129
93661.24
93952.867
94242.874
94530.11
94813.43
95091.714
95363.898
95628.984
95886.068
96134.354
96373.169
96601.972
96820.358
97028.061
97224.95
97411.022
97586.387
97751.261
97905.947
98050.821
98186.315
98312.905
98431.093
98541.397
98644.337
98740.43
98830.179
98914.065
98992.546
99066.053
99134.987
99199.715
99260.573
99317.869
99371.877
99422.843
99470.983
99516.488
99559.525
99600.236
99638.745
99675.158
99709.565
99742.025
99772.581
99801.337
99828.381
99853.415
99876.221
99898.425
99920.272
99933.423
99942.5
99981.4
87689.884
87998.58
87988.91
88331.317
88346.465
88665.498
88750.832
89025.351
89186.316
89427.127
89641.468
89878.205
90119.073
90369.426
90627.756
90894.08
91167.997
91449.07
91736.749
92030.374
92329.177
92632.28
92938.695
93247.34
93557.048
93866.577
94174.639
94479.913
94781.078
95076.832
95365.923
95647.176
95919.516
96181.995
96433.804
96674.294
96902.98
97119.542
97323.826
97515.832
97695.7
97863.697
98020.198
98165.665
98300.628
98425.67
98541.402
98648.455
98747.464
98839.053
98923.831
99002.38
99075.253
99142.966
99206.001
99264.799
99319.761
99371.253
99419.599
99465.091
99507.988
99548.511
99586.855
99623.187
99657.646
99690.35
99721.397
99750.866
99778.816
99805.273
99830.267
99853.896
99876.148
99896.593
99915.275
99934.17
99952.12
99959.324
99966.625
100012.19
87678.091
88026.205
88012.537
88395.664
88414.72
88770.002
88869.981
89171.846
89358.496
89622.881
89865.816
90128.933
90398.134
90676.93
90964.182
91259.617
91562.654
91872.623
92188.713
92509.982
92835.357
93163.644
93493.537
93823.634
94152.465
94478.51
94800.232
95116.107
95424.657
95724.487
96014.313
96292.996
96559.564
96813.236
97053.425
97279.752
97492.036
97690.282
97874.674
98045.543
98203.355
98348.679
98482.166
98604.526
98716.506
98818.871
98912.386
98997.807
99075.864
99147.255
99212.639
99272.634
99327.809
99378.69
99425.751
99469.423
99510.09
99548.094
99583.734
99617.273
99648.939
99678.927
99707.398
99734.488
99760.307
99784.945
99808.468
99830.929
99852.352
99872.733
99892.1
99910.527
99927.872
99943.639
99958.257
99973.806
99987.363
99988.572
99995.206
100047.09
87720.09
88115.058
88097.564
88528.888
88553.112
88947.825
89067.231
89398.352
89616.429
89907.76
90183.776
90477.898
90779.788
91091.438
91411.816
91740.323
92076.091
92418.114
92765.22
93116.083
93469.238
93823.093
94175.96
94526.078
94871.647
95210.871
95541.995
95863.346
96173.384
96470.734
96754.222
97022.903
97276.072
97513.278
97734.312
97939.2
98128.178
98301.67
98460.254
98604.638
98735.623
98854.079
98960.914
99057.054
99143.425
99220.93
99290.442
99352.792
99408.763
99459.081
99504.42
99545.393
99582.558
99616.415
99647.411
99675.944
99702.361
99726.964
99750.015
99771.738
99792.323
99811.925
99830.671
99848.661
99865.972
99882.661
99898.768
99914.311
99929.28
99943.654
99957.46
99970.722
99983.151
99994.296
100005.04
100017.21
100025.92
100021.45
100028.68
100085.9
87816.639
88267.171
88246.341
88732.435
88765.237
89203.824
89350.58
89713.73
89970.66
90293.939
90608.395
90939.158
91278.936
91628.499
91986.681
92352.457
92724.533
93101.437
93481.511
93862.94
94243.771
94621.949
94995.356
95361.853
95719.338
96065.799
96399.366
96718.371
97021.391
97307.278
97575.189
97824.591
98055.253
98267.234
98460.851
98636.651
98795.364
98937.875
99065.176
99178.333
99278.455
99366.665
99444.073
99511.763
99570.772
99622.083
99666.617
99705.226
99738.693
99767.731
99792.984
99815.029
99834.38
99851.489
99866.753
99880.518
99893.08
99904.69
99915.562
99925.872
99935.767
99945.359
99954.735
99963.958
99973.071
99982.098
99991.049
99999.91
100008.64
100017.21
100025.64
100033.88
100041.5
100048.23
100055.41
100064.14
100067.68
100058.32
100067.39
100128.38
87974.179
88490.644
88467.448
89015.95
89063.411
89550.034
89733.375
90132.097
90435.763
90797.387
91156.429
91530.366
91913.997
92307.02
92707.858
93114.896
93526.246
93939.822
94353.354
94764.426
95170.522
95569.079
95957.556
96333.505
96694.644
97038.933
97364.634
97670.356
97955.089
98218.212
98459.484
98679.022
98877.266
99054.927
99212.944
99352.428
99474.618
99580.827
99672.412
99750.733
99817.124
99872.879
99919.227
99957.324
99988.246
100012.98
100032.44
100047.44
100058.71
100066.92
100072.64
100076.38
100078.59
100079.65
100079.9
100079.61
100079.03
100078.33
100077.69
100077.22
100077.03
100077.18
100077.72
100078.68
100080.06
100081.86
100084.05
100086.59
100089.42
100092.51
100095.87
100099.31
100102.36
100105.03
100109
100114.24
100112.46
100099.52
100111.62
100174.3
88199.641
88795.122
88772.047
89391.277
89460.815
89999.451
90230.638
90670.086
91029.522
91437.943
91849.033
92273.639
92707.638
93149.671
93597.49
94048.711
94500.675
94950.526
95395.249
95831.745
96256.909
96667.732
97061.404
97435.408
97787.608
98116.314
98420.32
98698.914
98951.868
99179.402
99382.13
99560.998
99717.223
99852.218
99967.535
100064.8
100145.68
100211.82
100264.82
100306.23
100337.49
100359.97
100374.9
100383.43
100386.6
100385.34
100380.48
100372.75
100362.81
100351.23
100338.48
100325.01
100311.16
100297.24
100283.5
100270.16
100257.38
100245.3
100234.01
100223.59
100214.08
100205.52
100197.91
100191.23
100185.47
100180.59
100176.54
100173.24
100170.62
100168.65
100167.3
100166.29
100165.11
100164.19
100165.34
100167.01
100159.91
100145.03
100161.5
100223.09
88500.06
89190.065
89169.561
89869.213
89972.297
90568.779
90862.388
91350.963
91776.656
92242.13
92713.593
93196.498
93686.93
94182.407
94679.752
95175.582
95666.253
96147.969
96616.897
97069.293
97501.649
97910.834
98294.204
98649.697
98975.879
99271.956
99537.751
99773.648
99980.523
100159.65
100312.62
100441.25
100547.5
100633.38
100700.95
100752.2
100789.05
100813.34
100826.77
100830.92
100827.22
100817
100801.42
100781.53
100758.26
100732.42
100704.73
100675.82
100646.2
100616.34
100586.63
100557.38
100528.86
100501.29
100474.85
100449.66
100425.84
100403.44
100382.52
100363.1
100345.17
100328.74
100313.76
100300.18
100287.97
100277.05
100267.35
100258.76
100251.22
100244.7
100239.1
100234.02
100229.08
100225.12
100223.8
100221.89
100209.68
100194.08
100216.28
100274.29
88883.633
89686.548
89673.326
90468.443
90621.518
91285.639
91658.778
92207.31
92710.056
93243.211
93783.038
94330.775
94881.92
95432.594
95978.309
96514.371
97035.968
97538.373
98017.152
98468.355
98888.686
99275.617
99627.454
99943.34
100223.22
100467.73
100678.14
100856.19
101003.97
101123.83
101218.26
101289.77
101340.88
101374.01
101391.48
101395.45
101387.92
101370.7
101345.46
101313.68
101276.67
101235.6
101191.5
101145.26
101097.65
101049.34
101000.9
100952.8
100905.45
100859.18
100814.27
100770.94
100729.35
100689.65
100651.92
100616.23
100582.61
100551.08
100521.63
100494.25
100468.88
100445.47
100423.97
100404.29
100386.37
100370.11
100355.41
100342.16
100330.29
100319.76
100310.39
100301.73
100293.59
100287.15
100283.59
100278.22
100261.74
100246.26
100274.21
100328.25
89367.669
90309.652
90314.539
91224.544
91445.815
92188.103
92658.59
93278.779
93868.686
94479.589
95094.518
95711.092
96323.283
96925.287
97510.934
98074.158
98609.254
99111.178
99575.769
99999.921
100381.64
100720.07
101015.35
101268.57
101481.55
101656.66
101796.7
101904.73
101983.9
102037.37
102068.24
102079.45
102073.76
102053.72
102021.65
101979.65
101929.61
101873.18
101811.83
101746.85
101679.35
101610.29
101540.49
101470.65
101401.37
101333.14
101266.38
101201.41
101138.51
101077.9
101019.73
100964.13
100911.18
100860.93
100813.4
100768.6
100726.49
100687.05
100650.21
100615.92
100584.1
100554.66
100527.5
100502.55
100479.69
100458.81
100439.79
100422.53
100406.95
100392.99
100380.36
100368.64
100357.9
100349.52
100343.92
100335.37
100316.03
100301.56
100334.29
100384.75
89982.457
91101.518
91136.222
92180.018
92488.969
93318.328
93905.61
94611.499
95298.434
95995.548
96688.652
97371.633
98036.146
98674.303
99278.624
99842.559
100360.8
100829.51
101246.37
101610.59
101922.74
102184.53
102398.6
102568.25
102697.24
102789.54
102849.19
102880.15
102886.24
102871
102837.74
102789.43
102728.78
102658.17
102579.71
102495.25
102406.41
102314.57
102220.92
102126.48
102032.11
101938.54
101846.36
101756.07
101668.08
101582.72
101500.25
101420.85
101344.68
101271.83
101202.38
101136.35
101073.74
101014.53
100958.68
100906.14
100856.83
100810.66
100767.56
100727.41
100690.11
100655.55
100623.61
100594.19
100567.15
100542.36
100519.72
100499.09
100480.43
100463.59
100448.24
100434.03
100421.34
100411.51
100404.04
100392.57
100371.65
100359.98
100396.53
100441.98
90761.985
92094.084
92173.403
93371.998
93801.888
94730.587
95456.486
96264.368
97055.014
97839.238
98602.164
99334.084
100024.81
100665.73
101249.96
101772.72
102231.4
102625.42
102956.02
103225.93
103439
103599.81
103713.42
103785.06
103819.88
103822.88
103798.73
103751.72
103685.75
103604.3
103510.47
103406.94
103296.07
103179.89
103060.13
102938.27
102815.56
102693.06
102571.63
102452.02
102334.81
102220.49
102109.44
102001.97
101898.31
101798.62
101703.03
101611.61
101524.38
101441.36
101362.53
101287.82
101217.18
101150.53
101087.77
101028.79
100973.49
100921.74
100873.42
100828.4
100786.55
100747.74
100711.83
100678.7
100648.21
100620.21
100594.59
100571.23
100550.06
100530.89
100513.37
100497.26
100483.22
100472.36
100463.21
100449.29
100427.96
100420.36
100459.81
100498.71
91738.074
93336.132
93496.644
94867.061
95463.619
96507.119
97388.007
98306.757
99193.21
100044.81
100845.3
101583.53
102250.36
102839.82
103348.99
103777.83
104128.7
104405.86
104614.94
104762.37
104855.01
104899.71
104903.12
104871.49
104810.55
104725.46
104620.81
104500.64
104368.43
104227.19
104079.51
103927.56
103773.19
103617.93
103463.06
103309.66
103158.59
103010.55
102866.12
102725.74
102589.75
102458.43
102331.95
102210.46
102094.02
101982.67
101876.41
101775.21
101679
101587.7
101501.23
101419.47
101342.3
101269.58
101201.19
101136.97
101076.78
101020.47
100967.9
100918.91
100873.36
100831.09
100791.96
100755.83
100722.55
100691.97
100663.98
100638.46
100615.33
100594.33
100575.14
100557.72
100542.85
100531.25
100520.65
100505
100484.49
100481.32
100521.9
100553.02
92992.721
94926.452
95212.829
96775.788
97585.975
98750.855
99779.351
100790.69
101732.85
102596.98
103369.48
104042.99
104614.39
105084.61
105457.88
105740.87
105941.81
106069.79
106134.13
106143.92
106107.69
106033.28
105927.68
105797.08
105646.82
105481.52
105305.07
105120.79
104931.45
104739.34
104546.37
104354.11
104163.82
103976.55
103793.12
103614.19
103440.26
103271.74
103108.89
102951.93
102800.99
102656.14
102517.41
102384.78
102258.2
102137.59
102022.86
101913.89
101810.53
101712.66
101620.1
101532.72
101450.33
101372.77
101299.86
101231.44
101167.34
101107.38
101051.41
100999.24
100950.73
100905.7
100864.01
100825.5
100790.01
100757.42
100727.59
100700.43
100675.79
100653.41
100633.03
100614.8
100599.5
100587.35
100575.54
100559.01
100540.37
100541.04
100580.26
100604.21
94655.51
97003.506
97470.214
99222.641
100279.87
101547.63
102667.48
103701.83
104613.16
105395.72
106045.95
106566.71
106965.25
107251.95
107439.05
107539.45
107565.95
107530.61
107444.45
107317.25
107157.54
106972.64
106768.73
106550.99
106323.72
106090.48
105854.16
105617.13
105381.3
105148.2
104919.05
104694.8
104476.19
104263.8
104058.04
103859.22
103667.54
103483.12
103306.02
103136.23
102973.73
102818.42
102670.21
102528.95
102394.51
102266.72
102145.41
102030.38
101921.45
101818.43
101721.12
101629.32
101542.83
101461.45
101384.99
101313.26
101246.07
101183.23
101124.56
101069.89
101019.04
100971.85
100928.15
100887.78
100850.6
100816.47
100785.26
100756.87
100731.12
100707.76
100686.61
100667.97
100652.5
100639.9
100627.15
100610.47
100594.31
100598.13
100634.67
100652.61
96911.948
99724.306
100431.62
102319.82
103583
104890.65
105982.79
106911.85
107665.59
108250.61
108678.72
108966.29
109131.67
109193.48
109169.47
109075.78
108926.66
108734.31
108509.05
108259.44
107992.51
107713.99
107428.5
107139.73
106850.65
106563.57
106280.33
106002.34
105730.69
105466.21
105209.5
104961
104721
104489.68
104267.14
104053.38
103848.37
103652.03
103464.22
103284.81
103113.6
102950.41
102795.04
102647.26
102506.86
102373.61
102247.27
102127.61
102014.4
101907.42
101806.43
101711.21
101621.53
101537.19
101457.96
101383.63
101314.02
101248.93
101188.15
101131.52
101078.85
101029.97
100984.71
100942.93
100904.45
100869.16
100836.94
100807.66
100781.12
100757.1
100735.53
100716.77
100701.26
100688.26
100674.91
100658.81
100645.59
100651.95
100684.49
100695.43
100006.74
103196.16
104203.51
106150.31
107446.35
108599.05
109499.37
110172.86
110638.27
110922.96
111055.27
111062.89
110970.9
110801.15
110572.09
110298.91
109993.94
109667.06
109326.08
108977.13
108625.01
108273.4
107925.16
107582.45
107246.9
106919.7
106601.74
106293.62
105995.76
105708.39
105431.65
105165.55
104910.04
104665
104430.29
104205.7
103991.02
103786
103590.39
103403.92
103226.33
103057.34
102896.67
102744.05
102599.2
102461.85
102331.72
102208.56
102092.1
101982.09
101878.27
101780.41
101688.27
101601.61
101520.22
101443.87
101372.36
101305.49
101243.07
101184.89
101130.8
101080.6
101034.14
100991.25
100951.79
100915.64
100882.66
100852.72
100825.63
100801.21
100779.47
100760.74
100745.2
100731.88
100718.33
100703.46
100693.21
100700.66
100727.72
100733.76
104193.93
107591.31
108793.62
110468.38
111576.76
112389.16
112906.19
113183.31
113265.53
113196.02
113011.09
112740.77
112409.01
112034.59
111632.01
111212.33
110783.95
110353.13
109924.56
109501.7
109087.06
108682.43
108289.1
107907.91
107539.4
107183.89
106841.5
106512.24
106195.99
105892.59
105601.8
105323.34
105056.91
104802.2
104558.87
104326.58
104104.97
103893.72
103692.46
103500.86
103318.59
103145.31
102980.7
102824.44
102676.23
102535.74
102402.71
102276.83
102157.82
102045.42
101939.37
101839.4
101745.28
101656.75
101573.6
101495.6
101422.54
101354.22
101290.43
101230.99
101175.72
101124.43
101076.98
101033.2
100992.94
100956.09
100922.52
100892.07
100864.57
100839.89
100818.1
100799.41
100783.8
100770.24
100756.9
100743.66
100735.91
100743.18
100764.39
100766.78
109397.96
112744.35
113848.5
114957.36
115552.36
115821.71
115830.32
115651.6
115339.35
114935.64
114471.64
113970.26
113448.09
112917.04
112385.61
111859.74
111343.59
110840.01
110350.86
109877.34
109420.16
108979.64
108555.88
108148.76
107758.06
107383.45
107024.56
106680.95
106352.18
106037.77
105737.28
105450.21
105176.12
104914.54
104665.02
104427.13
104200.44
103984.53
103779.01
103583.49
103397.58
103220.93
103053.18
102893.98
102743
102599.93
102464.45
102336.26
102215.07
102100.61
101992.59
101890.77
101794.88
101704.69
101619.96
101540.47
101466
101396.35
101331.32
101270.72
101214.37
101162.09
101113.73
101069.13
101028.15
100990.66
100956.53
100925.61
100897.77
100872.9
100851.05
100832.33
100816.56
100802.89
100790.16
100778.77
100772.82
100778.27
100792.85
100793.99
115563.76
118057.9
118656.61
118925.71
118821.44
118484.88
117995.08
117412.31
116776.8
116115.75
115447.19
114782.95
114130.68
113495.24
112879.55
112285.32
111713.35
111163.89
110636.82
110131.76
109648.17
109185.4
108742.78
108319.58
107915.07
107528.54
107159.27
106806.59
106469.83
106148.35
105841.54
105548.82
105269.61
105003.39
104749.63
104507.85
104277.57
104058.33
103849.71
103651.28
103462.64
103283.42
103113.23
102951.73
102798.57
102653.41
102515.95
102385.87
102262.88
102146.69
102037.02
101933.63
101836.24
101744.62
101658.52
101577.74
101502.04
101431.24
101365.12
101303.5
101246.19
101193.04
101143.87
101098.54
101056.9
101018.83
100984.2
100952.86
100924.7
100899.65
100877.7
100858.85
100842.86
100829.16
100817.21
100807.52
100802.61
100805.54
100814.29
100815.47
122144.98
122579.25
122355.45
121801.39
121065.69
120239.05
119377.07
118511.37
117660.26
116833.84
116037.44
115273.51
114542.83
113845.16
113179.69
112545.29
111940.68
111364.49
110815.38
110292
109793.09
109317.43
108863.87
108431.33
108018.8
107625.32
107250.01
106892.02
106550.57
106224.91
105914.36
105618.25
105335.98
105066.94
104810.6
104566.42
104333.9
104112.57
103901.98
103701.69
103511.29
103330.38
103158.59
102995.55
102840.9
102694.33
102555.49
102424.09
102299.82
102182.4
102071.55
101967
101868.5
101775.81
101688.69
101606.92
101530.28
101458.56
101391.58
101329.14
101271.05
101217.16
101167.3
101121.33
101079.11
101040.49
101005.36
100973.6
100945.09
100919.77
100897.59
100878.46
100862.18
100848.43
100837.1
100828.66
100824.23
100824.56
100828.79
100830.65
126007.99
125379.83
124459.7
123404.36
122317.37
121242.79
120203.22
119207.89
118260.19
117360.3
116506.88
115697.85
114930.81
114203.3
113512.91
112857.35
112234.47
111642.29
111078.95
110542.79
110032.23
109545.85
109082.33
108640.48
108219.16
107817.35
107434.09
107068.49
106719.73
106387.03
106069.69
105767.01
105478.37
105203.16
104940.84
104690.85
104452.69
104225.89
104009.98
103804.54
103609.14
103423.38
103246.89
103079.3
102920.26
102769.42
102626.48
102491.11
102363.03
102241.93
102127.54
102019.59
101917.84
101822.03
101731.93
101647.3
101567.95
101493.65
101424.22
101359.46
101299.19
101243.25
101191.47
101143.7
101099.81
101059.67
101023.13
100990.1
100960.47
100934.17
100911.13
100891.21
100874.26
100860.11
100848.73
100840.4
100835.63
100834.69
100836.75
100839.06
104060.02
104024.23
104050.6
104077.45
104092.66
104084.33
104051.92
104010.23
103962.53
103903.97
103832.46
103750.82
103662.36
103571.18
103477.62
103381.67
103283.58
103183.66
103082.2
102979.46
102875.66
102771.04
102665.82
102560.19
102454.34
102348.47
102242.75
102137.36
102032.45
101928.21
101824.78
101722.33
101621
101520.95
101422.33
101325.28
101229.95
101136.47
101045.01
100955.69
100868.67
100784.08
100702.07
100622.76
100546.32
100472.86
100402.52
100335.44
100271.73
100211.51
100154.87
100101.92
100052.73
100007.37
99965.888
99928.31
99894.65
99864.894
99839.004
99816.916
99798.533
99783.733
99772.376
99764.296
99759.322
99757.204
99757.829
99760.647
99766.148
99772.372
99782.806
99789.305
99807.465
99808.16
99841.936
99820.633
99886.986
99826.046
99938.6
99829.415
103078.18
103071.96
103094.75
103115.37
103117.99
103116.71
103109.35
103095.55
103072.24
103043.36
103007.99
102967.64
102921.75
102871.2
102816
102756.69
102693.44
102626.55
102556.27
102482.91
102406.73
102328.02
102247.06
102164.14
102079.52
101993.48
101906.28
101818.2
101729.47
101640.35
101551.07
101461.87
101372.97
101284.59
101196.94
101110.23
101024.66
100940.43
100857.74
100776.78
100697.72
100620.75
100546.06
100473.8
100404.15
100337.27
100273.32
100212.45
100154.8
100100.49
100049.63
100002.34
99958.688
99918.748
99882.572
99850.189
99821.603
99796.796
99775.723
99758.31
99744.45
99734.014
99726.851
99722.788
99721.643
99723.165
99727.213
99733.285
99741.753
99750.909
99763.738
99773.074
99792.782
99796.327
99830.481
99812.855
99878.763
99820.564
99934.844
99823.278
102441.37
102436.06
102435.32
102437.14
102432.38
102427.22
102417.52
102407.63
102392.81
102375.61
102353.28
102328.06
102298.16
102264.86
102227.49
102186.56
102142.01
102094.07
102042.86
101988.56
101931.37
101871.47
101809.06
101744.36
101677.57
101608.91
101538.6
101466.86
101393.91
101319.99
101245.31
101170.12
101094.63
101019.09
100943.71
100868.73
100794.38
100720.87
100648.43
100577.27
100507.62
100439.67
100373.63
100309.71
100248.09
100188.97
100132.52
100078.92
100028.31
99980.845
99936.642
99895.816
99858.458
99824.644
99794.426
99767.834
99744.872
99725.517
99709.717
99697.392
99688.427
99682.686
99680.012
99680.225
99683.134
99688.489
99696.128
99705.588
99717.156
99729.309
99744.668
99756.81
99778.259
99784.417
99819.338
99804.999
99870.776
99815.074
99931.078
99817.469
101987.73
101975.43
101959.78
101944.14
101929.2
101916.14
101896.25
101878.07
101855.92
101834.55
101809.45
101784.21
101755.91
101726.52
101694.67
101661.02
101625.2
101587.32
101547.31
101505.18
101460.97
101414.68
101366.39
101316.14
101264.04
101210.17
101154.67
101097.66
101039.29
100979.73
100919.16
100857.75
100795.71
100733.24
100670.55
100607.87
100545.4
100483.38
100422.03
100361.57
100302.23
100244.23
100187.8
100133.14
100080.48
100030.01
99981.935
99936.435
99893.681
99853.823
99817.001
99783.331
99752.916
99725.832
99702.137
99681.861
99665.005
99651.544
99641.42
99634.545
99630.801
99630.045
99632.116
99636.829
99643.986
99653.338
99664.708
99677.668
99692.438
99707.645
99725.632
99740.562
99763.885
99772.507
99808.466
99797.076
99863.061
99809.609
99927.321
99812.032
101446.14
101429.83
101411.57
101392.37
101372.36
101356.26
101335.59
101318.71
101297.4
101279.03
101257
101236.61
101213.51
101190.69
101166.01
101140.52
101113.57
101085.33
101055.61
101024.38
100991.61
100957.24
100921.27
100883.7
100844.54
100803.85
100761.66
100718.07
100673.15
100627.01
100579.78
100531.6
100482.62
100433.01
100382.95
100332.63
100282.26
100232.03
100182.16
100132.87
100084.39
100036.93
99990.724
99945.992
99902.954
99861.824
99822.805
99786.088
99751.85
99720.249
99691.431
99665.518
99642.615
99622.804
99606.141
99592.656
99582.347
99575.186
99571.108
99570.02
99571.798
99576.296
99583.349
99592.768
99604.35
99617.849
99633.077
99649.636
99667.695
99686.012
99706.697
99724.416
99749.697
99760.71
99797.846
99789.208
99855.582
99804.242
99923.622
99806.932
100811.99
100802.07
100792.6
100782.82
100770.15
100762.69
100748.89
100740.38
100726.02
100715.82
100700.94
100688.78
100673.49
100659.25
100643.11
100626.57
100608.78
100590.05
100570.15
100549.06
100526.75
100503.16
100478.29
100452.09
100424.58
100395.76
100365.65
100334.28
100301.71
100268
100233.23
100197.51
100160.95
100123.69
100085.87
100047.65
100009.21
99970.733
99932.407
99894.438
99857.035
99820.414
99784.793
99750.393
99717.429
99686.113
99656.648
99629.224
99604.017
99581.188
99560.881
99543.222
99528.314
99516.236
99507.043
99500.762
99497.386
99496.88
99499.174
99504.167
99511.732
99521.719
99533.96
99548.262
99564.421
99582.191
99601.381
99621.621
99643.035
99664.504
99687.934
99708.435
99735.73
99749.112
99787.474
99781.472
99848.337
99799.029
99920.04
99802.144
100187.67
100185.6
100183.63
100183.36
100177.91
100179.07
100172.33
100172.46
100165.51
100164.23
100157.02
100153.55
100146.28
100140.63
100132.73
100124.72
100115.46
100105.51
100094.62
100082.79
100069.99
100056.17
100041.32
100025.39
100008.39
99990.288
99971.1
99950.837
99929.528
99907.217
99883.96
99859.831
99834.917
99809.322
99783.164
99756.574
99729.698
99702.695
99675.735
99649.001
99622.684
99596.983
99572.101
99548.246
99525.622
99504.429
99484.86
99467.096
99451.308
99437.65
99426.26
99417.258
99410.742
99406.785
99405.434
99406.71
99410.599
99417.056
99426.002
99437.332
99450.912
99466.59
99484.194
99503.53