/*--------------------------------*- C++ -*----------------------------------*\
| =========                 |                                                 |
| \\      /  F ield         | OpenFOAM: The Open Source CFD Toolbox           |
|  \\    /   O peration     | Version:  2512                                  |
|   \\  /    A nd           | Website:  www.openfoam.com                      |
|    \\/     M anipulation  |                                                 |
\*---------------------------------------------------------------------------*/
FoamFile
{
    version     2.0;
    format      ascii;
    arch        "LSB;label=32;scalar=64";
    class       surfaceScalarField;
    location    "0.142";
    object      phi;
}
// * * * * * * * * * * * * * * * * * * * * * * * * * * * * * * * * * * * * * //

dimensions      [1 0 -1 0 0 0 0];

oriented        oriented;

internalField   nonuniform List<scalar> 
31760
(
-0.00063904977
-0.051041286
0.051681002
-0.0016040564
-0.06447128
0.065436913
-0.0025893581
-0.062929703
0.063913554
-0.0036071755
-0.068731182
0.069749756
-0.0046790138
-0.070293393
0.071365944
-0.0057799194
-0.074641676
0.075743256
-0.0069504821
-0.077518076
0.078689321
-0.00816032
-0.081565167
0.082775644
-0.0094302618
-0.085170208
0.086440798
-0.010759177
-0.089307226
0.090636776
-0.012143397
-0.093439009
0.094823866
-0.013595171
-0.097861158
0.099313576
-0.015108658
-0.10244168
0.10395582
-0.01669245
-0.10725211
0.10883657
-0.018345891
-0.11227695
0.11393108
-0.02007383
-0.11753465
0.11926329
-0.02187886
-0.12303262
0.12483839
-0.023764187
-0.12878256
0.13066865
-0.02573303
-0.13479541
0.13676504
-0.027788775
-0.14108249
0.14313907
-0.029934846
-0.14765622
0.14980316
-0.032174995
-0.15452858
0.15676964
-0.034512813
-0.16171318
0.16405195
-0.036952199
-0.16922375
0.17166413
-0.039496124
-0.17707482
0.17961979
-0.042149168
-0.18528052
0.18793467
-0.044915222
-0.1938571
0.19662432
-0.047797714
-0.20282119
0.20570491
-0.05080014
-0.21218971
0.21519343
-0.053926551
-0.22198073
0.2251085
-0.05718026
-0.2322132
0.23546835
-0.06056461
-0.24290694
0.24629281
-0.064082425
-0.25408345
0.25760287
-0.067736769
-0.26576384
0.26941988
-0.071529651
-0.27797222
0.28176689
-0.07546275
-0.29073288
0.29466786
-0.079537415
-0.30407155
0.30814821
-0.08375414
-0.31801599
0.32223482
-0.08811275
-0.33259422
0.33695506
-0.092611936
-0.34783776
0.3523393
-0.097249695
-0.36377845
0.36841869
-0.10202259
-0.38045016
0.38522567
-0.10692599
-0.39788906
0.40279523
-0.11195406
-0.41613315
0.42116415
-0.11709901
-0.43522297
0.44037103
-0.12235166
-0.45520035
0.46045628
-0.12770038
-0.4761104
0.4814626
-0.13313219
-0.49799973
0.50343522
-0.1386315
-0.52091866
0.52642187
-0.14417993
-0.54491921
0.55047178
-0.14975636
-0.57005604
0.57563686
-0.1553372
-0.59638739
0.60197288
-0.160895
-0.62397378
0.62953651
-0.16639871
-0.65287896
0.65838791
-0.17181376
-0.68316958
0.68859022
-0.17710018
-0.71491634
0.7202087
-0.1822138
-0.74819244
0.7533124
-0.18710515
-0.78307472
0.78797285
-0.19171782
-0.81964404
0.82426394
-0.1959896
-0.85798446
0.86226398
-0.19985038
-0.89818374
0.90205282
-0.20322229
-0.94033324
0.94371406
-0.206018
-0.98452872
0.98733399
-0.20814011
-1.0308696
1.033002
-0.20947982
-1.0794573
1.0808081
-0.20991613
-1.1303973
1.1308454
-0.20931274
-1.1837961
1.1832054
-0.2075241
-1.2397615
1.2379866
-0.20438329
-1.2984101
1.295284
-0.19970319
-1.3598605
1.3551962
-0.19328121
-1.4242341
1.4178291
-0.18489701
-1.4916513
1.4832853
-0.17429704
-1.5622359
1.5516551
-0.1612147
-1.6361103
1.6230481
-0.14534185
-1.7134204
1.6975686
-0.12639474
-1.7943123
1.7753868
-0.10379514
-1.8789519
1.8563746
-0.077829379
-1.9677048
1.9417666
-0.046571094
-2.0596031
2.028359
-2.1579919
2.1231198
-0.0006335781
-0.050407489
-0.0015030301
-0.063601584
-0.0023990896
-0.062032864
-0.0033576407
-0.067772445
-0.0043263246
-0.069324488
-0.0053717731
-0.073595957
-0.0064329883
-0.076456563
-0.0075740196
-0.080423792
-0.0087407921
-0.084003061
-0.0099822924
-0.088065312
-0.011266246
-0.092154608
-0.012618081
-0.096508839
-0.014026957
-0.10103229
-0.015502508
-0.10577601
-0.017044582
-0.11073429
-0.018657482
-0.11592112
-0.020343328
-0.12134612
-0.022105915
-0.12701927
-0.023948458
-0.13295213
-0.025874547
-0.13915563
-0.027887849
-0.1456421
-0.029991625
-0.15242394
-0.032189987
-0.15951391
-0.034486633
-0.16692614
-0.036886369
-0.17467407
-0.039392018
-0.1827738
-0.042008288
-0.19123971
-0.044738931
-0.20008935
-0.047588255
-0.20933912
-0.05055986
-0.2190078
-0.053657863
-0.2291138
-0.056885639
-0.23967769
-0.060246539
-0.25072098
-0.063743606
-0.26226512
-0.067379321
-0.27433476
-0.071156072
-0.28695428
-0.075075088
-0.30015058
-0.079137933
-0.31395108
-0.08334401
-0.32838596
-0.087692962
-0.3434865
-0.092183228
-0.35928574
-0.096811738
-0.37581906
-0.10157414
-0.3931239
-0.10646537
-0.41123901
-0.11147833
-0.43020692
-0.11660444
-0.45007096
-0.12183342
-0.47087794
-0.1271526
-0.49267686
-0.13254761
-0.51551973
-0.13800183
-0.53946084
-0.14349578
-0.56455767
-0.14900734
-0.59087113
-0.15451119
-0.61846493
-0.15997892
-0.6474059
-0.16537836
-0.67776446
-0.17067311
-0.70961553
-0.17582262
-0.74303646
-0.18078127
-0.77810914
-0.1854977
-0.81492018
-0.18991501
-0.85355917
-0.19396916
-0.89412102
-0.19758878
-0.93670439
-0.20069377
-0.98141379
-0.20319597
-1.0283567
-0.20499571
-1.077646
-0.20598356
-1.129397
-0.2060337
-1.1837325
-0.20501069
-1.2407701
-0.20276367
-1.3006416
-0.19912386
-1.3634836
-0.1939069
-1.4294331
-0.18690559
-1.4986333
-0.17789314
-1.5712277
-0.16661765
-1.6473641
-0.15281185
-1.7272036
-0.13616841
-1.8109324
-0.11632196
-1.8987735
-0.093130016
-1.9908692
-0.065508443
-2.0872074
-2.1892268
-0.0005711111
-0.049836141
-0.0013829242
-0.062789512
-0.0021864727
-0.061228862
-0.003093065
-0.06686555
-0.0039832076
-0.068433987
-0.0049614182
-0.072617396
-0.005938675
-0.075478925
-0.0070012831
-0.079360783
-0.0080814509
-0.082922467
-0.0092354335
-0.08691088
-0.010428214
-0.090961354
-0.01168534
-0.095251213
-0.012996878
-0.099720224
-0.014371613
-0.10440072
-0.01580997
-0.10929535
-0.017315648
-0.11441483
-0.018891964
-0.11976916
-0.020541877
-0.12536868
-0.022269656
-0.13122363
-0.024078119
-0.13734641
-0.025971747
-0.14374767
-0.027954055
-0.1504408
-0.030028916
-0.15743816
-0.032201111
-0.16475302
-0.034473911
-0.17240028
-0.036852536
-0.18039414
-0.03934045
-0.1887507
-0.041942745
-0.1974859
-0.04466301
-0.20661763
-0.047506435
-0.21616308
-0.05047618
-0.22614268
-0.05357663
-0.23657579
-0.056811654
-0.24748443
-0.060184005
-0.25889115
-0.063697345
-0.2708197
-0.067353914
-0.2832959
-0.071156018
-0.29634656
-0.075104238
-0.31000083
-0.079199649
-0.3242884
-0.083441785
-0.33924208
-0.087828895
-0.35489621
-0.09235889
-0.37128649
-0.097028407
-0.38845166
-0.10183198
-0.40643254
-0.10676361
-0.42527221
-0.11181529
-0.44501601
-0.11697778
-0.46571198
-0.1222391
-0.48741184
-0.12758669
-0.5101682
-0.13300485
-0.53403849
-0.13847537
-0.55908267
-0.14397881
-0.58536292
-0.14949184
-0.61294682
-0.15498851
-0.64190379
-0.16043964
-0.67230754
-0.16581228
-0.70423668
-0.17106985
-0.73777223
-0.1761702
-0.77300164
-0.18106787
-0.81001483
-0.18571042
-0.84890835
-0.19004044
-0.88978208
-0.19399293
-0.93274228
-0.19749631
-0.9779
-0.20046972
-1.025372
-0.20282323
-1.0752803
-0.20445562
-1.1277514
-0.20525855
-1.1829154
-0.2051058
-1.2409075
-0.20385772
-1.3018732
-0.20136625
-1.3659573
-0.19745804
-1.4333221
-0.19195088
-1.5041198
-0.18463302
-1.5785235
-0.17527983
-1.6566939
-0.16364098
-1.738818
-0.14943563
-1.8251125
-0.13237469
-1.9158069
-0.11217178
-2.0110433
-0.088189946
-2.1111668
-2.2167133
-0.00051614901
-0.0493197
-0.0012672793
-0.06203809
-0.001998658
-0.060497323
-0.0028474941
-0.066016369
-0.0036725818
-0.067608521
-0.0045836426
-0.071705966
-0.0054844343
-0.074577752
-0.0064734124
-0.078371406
-0.0074738395
-0.081921624
-0.008547005
-0.085837278
-0.0096558552
-0.089852047
-0.010826118
-0.094080471
-0.012048952
-0.098496886
-0.013332129
-0.10311701
-0.014677105
-0.10794982
-0.016087727
-0.11300362
-0.017567251
-0.11828901
-0.019119044
-0.12381623
-0.020746558
-0.12959543
-0.022454122
-0.13563812
-0.024244894
-0.14195614
-0.02612393
-0.14856095
-0.028095142
-0.1554661
-0.030162527
-0.16268473
-0.032331268
-0.17023059
-0.034605347
-0.17811905
-0.036989849
-0.18636513
-0.039489167
-0.19498546
-0.042108818
-0.20399679
-0.044852228
-0.21341841
-0.047724607
-0.22326897
-0.050730398
-0.23356859
-0.053873381
-0.24433995
-0.05715752
-0.25560543
-0.060586306
-0.26738924
-0.064162272
-0.27971815
-0.067887699
-0.29261925
-0.071764562
-0.30612196
-0.075793254
-0.32025758
-0.079973854
-0.33505923
-0.084305776
-0.35056189
-0.088786346
-0.36680338
-0.093412748
-0.38382255
-0.098180593
-0.40166181
-0.10308392
-0.42036582
-0.10811619
-0.43998047
-0.11326766
-0.46055703
-0.11852936
-0.48214642
-0.12388844
-0.50480515
-0.12933122
-0.52859147
-0.13484202
-0.55356736
-0.14040217
-0.57979795
-0.14599139
-0.60735243
-0.1515868
-0.63630285
-0.1571613
-0.66672711
-0.1626865
-0.69870512
-0.16812893
-0.73232296
-0.17345173
-0.76767148
-0.17861374
-0.80484488
-0.18356853
-0.84394497
-0.18826447
-0.88507687
-0.1926437
-0.928353
-0.19664206
-0.97389075
-0.20018727
-1.021815
-0.2031989
-1.0722559
-0.20558901
-1.1253474
-0.20725216
-1.1812372
-0.20808234
-1.2400611
-0.20795109
-1.3019869
-0.20672622
-1.3671632
-0.20425484
-1.435773
-0.2003607
-1.5079918
-0.19486612
-1.5839943
-0.18755861
-1.6639761
-0.17821678
-1.7481333
-0.1665904
-1.8367111
-0.15241255
-1.9299545
-0.1353835
-2.0280417
-0.11506961
-2.1314546
-2.2402803
-0.00046225695
-0.048857193
-0.0011667872
-0.061333298
-0.0018218308
-0.059841958
-0.0026107521
-0.065227164
-0.0033596116
-0.06685939
-0.0042136048
-0.07085165
-0.0050476504
-0.073743365
-0.0059708928
-0.077447801
-0.0069003661
-0.080991769
-0.0079005573
-0.084836682
-0.0089352084
-0.088816969
-0.010028895
-0.092986333
-0.011174876
-0.097350428
-0.012379702
-0.10191168
-0.013645537
-0.10668345
-0.014975494
-0.1116731
-0.016373278
-0.11689064
-0.017842641
-0.12234624
-0.019387261
-0.12805015
-0.021011164
-0.13401352
-0.022719071
-0.14024749
-0.02451435
-0.1467649
-0.026402543
-0.15357708
-0.02838828
-0.16069812
-0.030476135
-0.16814182
-0.032671448
-0.17592277
-0.034979505
-0.18405604
-0.037405331
-0.19255854
-0.039953949
-0.20144702
-0.042630669
-0.21074046
-0.045440483
-0.22045786
-0.048387983
-0.23061971
-0.051477651
-0.24124883
-0.054713964
-0.25236757
-0.0581002
-0.26400136
-0.061639554
-0.27617706
-0.065334626
-0.28892232
-0.0691874
-0.30226722
-0.073198693
-0.31624419
-0.077368939
-0.33088675
-0.081697113
-0.34623134
-0.086182042
-0.36231592
-0.090820415
-0.37918149
-0.095608508
-0.39687085
-0.1005418
-0.41542947
-0.10561322
-0.43490578
-0.11081548
-0.45535128
-0.11613934
-0.47681883
-0.12157399
-0.49936652
-0.12710778
-0.52305342
-0.13272611
-0.54794445
-0.13841345
-0.5741057
-0.14415166
-0.60160897
-0.14992028
-0.63052857
-0.15569689
-0.66094443
-0.16145559
-0.69293988
-0.16716707
-0.72660443
-0.17279989
-0.76203105
-0.17831733
-0.79931921
-0.18367934
-0.83857405
-0.1888401
-0.87990645
-0.19374906
-0.92343354
-0.19834926
-0.96927912
-0.20257755
-1.0175743
-0.20636306
-1.0684569
-0.20962519
-1.1220706
-0.21227864
-1.1785677
-0.21421752
-1.2381049
-0.21534131
-1.3008443
-0.21551689
-1.3669673
-0.21461661
-1.4366513
-0.21248681
-1.5100979
-0.20896009
-1.5874955
-0.20385215
-1.6690567
-0.19695978
-1.7549969
-0.18805998
-1.8455805
-0.17691985
-1.9410612
-0.16324385
-2.041684
-0.14671035
-2.1479578
-2.2597442
-0.00041255362
-0.0484444
-0.0010760198
-0.060669583
-0.0016688484
-0.059248864
-0.0024024397
-0.06449329
-0.0030742541
-0.066187267
-0.0038771856
-0.070048403
-0.0046437767
-0.072976441
-0.005506914
-0.076584313
-0.0063723865
-0.080125926
-0.0073114319
-0.083897247
-0.0082863077
-0.087841682
-0.0093178772
-0.091954329
-0.010401745
-0.096266101
-0.011542881
-0.10077007
-0.012743968
-0.10548185
-0.014008889
-0.11040764
-0.015341137
-0.11555782
-0.016744595
-0.12094219
-0.018223774
-0.12657034
-0.019782684
-0.13245394
-0.021426451
-0.13860302
-0.02315992
-0.14503068
-0.024988279
-0.15174793
-0.026916686
-0.15876887
-0.02895082
-0.16610679
-0.031096568
-0.17377608
-0.033358754
-0.18179286
-0.035743778
-0.19017246
-0.03825705
-0.19893263
-0.040904063
-0.20809226
-0.043690527
-0.21767014
-0.046621137
-0.22768776
-0.049701408
-0.23816713
-0.052934746
-0.24913272
-0.056325762
-0.26060874
-0.059877879
-0.27262323
-0.063593372
-0.28520501
-0.067474284
-0.29838437
-0.0715222
-0.31219422
-0.075737206
-0.32666955
-0.080119193
-0.34184701
-0.084666139
-0.35776647
-0.089376275
-0.37446868
-0.094246297
-0.39199797
-0.099271071
-0.41040164
-0.10444544
-0.42972814
-0.10976356
-0.45002966
-0.11521649
-0.47136215
-0.1207962
-0.49378278
-0.12649121
-0.51735409
-0.13229082
-0.54214021
-0.13818097
-0.56821057
-0.14414656
-0.59563802
-0.15017044
-0.62449892
-0.15623322
-0.65487543
-0.16231309
-0.6868533
-0.16838628
-0.72052397
-0.1744247
-0.75598475
-0.18039786
-0.79333751
-0.18627071
-0.83269191
-0.19200509
-0.87416196
-0.19755706
-0.91787055
-0.20287795
-0.96394623
-0.20791281
-1.0125263
-0.21260012
-1.0637552
-0.21687075
-1.1177843
-0.22064736
-1.1747741
-0.22384571
-1.234888
-0.2263638
-1.2983062
-0.22810096
-1.3652084
-0.22893329
-1.4357955
-0.22872973
-1.510276
-0.22734254
-1.5888551
-0.22460599
-1.6717637
-0.22034027
-1.7592312
-0.21435258
-1.8515347
-0.20642666
-1.9489503
-0.19630821
-2.0517656
-0.18372409
-2.1605073
-2.2749056
-0.00037001052
-0.048074162
-0.0010026978
-0.060036659
-0.001540885
-0.058710425
-0.0022285883
-0.063805321
-0.0028431993
-0.065572371
-0.0035953468
-0.069295958
-0.0043089853
-0.072262487
-0.0051110663
-0.0757819
-0.0059364205
-0.07930022
-0.0068286511
-0.083004645
-0.007756599
-0.086913342
-0.0087374469
-0.090973067
-0.0097702069
-0.095232904
-0.010859198
-0.099680612
-0.012008409
-0.10433215
-0.013221352
-0.10919418
-0.014502893
-0.11427573
-0.015857139
-0.11958736
-0.017288906
-0.12513796
-0.018803615
-0.13093858
-0.020405902
-0.13700005
-0.022102019
-0.14333384
-0.023897238
-0.14995195
-0.025797322
-0.15686798
-0.027808716
-0.16409454
-0.02993716
-0.17164672
-0.032189659
-0.17953939
-0.034571898
-0.18778919
-0.037089747
-0.19641369
-0.039749951
-0.2054309
-0.042557656
-0.2148612
-0.045518585
-0.22472553
-0.048637542
-0.23504679
-0.051919759
-0.24584902
-0.055368384
-0.25715854
-0.058987162
-0.26900277
-0.062779255
-0.28141113
-0.066746369
-0.29441535
-0.070889618
-0.30804893
-0.075209617
-0.32234738
-0.079706259
-0.33734805
-0.084378206
-0.35309204
-0.089223797
-0.36962043
-0.094239752
-0.38697917
-0.099423029
-0.40521531
-0.10476895
-0.42437894
-0.11027194
-0.44452316
-0.11592636
-0.46570395
-0.12172413
-0.48798095
-0.12765772
-0.51141613
-0.13371702
-0.53607621
-0.13989159
-0.56203093
-0.14616966
-0.58935447
-0.15253705
-0.61812561
-0.15897857
-0.64842752
-0.16547634
-0.6803486
-0.17201104
-0.71398175
-0.1785602
-0.74942741
-0.18509848
-0.78679034
-0.19159786
-0.82618284
-0.19802572
-0.86772353
-0.20434628
-0.91153843
-0.21051845
-0.95776142
-0.21649652
-1.0065344
-0.22222887
-1.0580078
-0.22765661
-1.11234
-0.23271426
-1.1696984
-0.23732896
-1.2302536
-0.24141535
-1.2941983
-0.24488134
-1.3617191
-0.24762815
-1.4330233
-0.24953784
-1.5083387
-0.25047993
-1.5878831
-0.25031665
-1.6718947
-0.24888456
-1.760629
-0.24601517
-1.8543672
-0.24152614
-1.9533986
-0.23518677
-2.0580645
-0.22676776
-2.1688871
-2.2855296
-0.00032646413
-0.047747482
-0.00093322675
-0.059429672
-0.0014226532
-0.058220756
-0.0020652299
-0.063162491
-0.0026380373
-0.064999296
-0.0033645962
-0.068569114
-0.0040458954
-0.071580887
-0.0048326239
-0.074994853
-0.0056148131
-0.078517695
-0.006459379
-0.082159723
-0.0073437319
-0.086028613
-0.0082804904
-0.090035912
-0.0092715997
-0.094241375
-0.010320635
-0.098631134
-0.011431969
-0.10322035
-0.012610171
-0.10801548
-0.013859195
-0.11302618
-0.015185026
-0.11826098
-0.016592512
-0.12372989
-0.01808736
-0.12944311
-0.01967546
-0.13541129
-0.021362879
-0.14164572
-0.023156012
-0.14815807
-0.025062202
-0.154961
-0.027087042
-0.16206887
-0.029238153
-0.16949473
-0.031521821
-0.17725479
-0.033945028
-0.18536499
-0.036514437
-0.19384322
-0.039236254
-0.20270796
-0.042116349
-0.21197991
-0.045160586
-0.22168001
-0.048374195
-0.23183182
-0.051761307
-0.24246046
-0.055326213
-0.25359209
-0.059072439
-0.2652549
-0.063002154
-0.27747966
-0.06711758
-0.29029805
-0.071419987
-0.30374451
-0.075909857
-0.31785535
-0.080586922
-0.33266868
-0.085451057
-0.34822544
-0.090500049
-0.36456878
-0.095732204
-0.38174417
-0.10114491
-0.39979955
-0.10673471
-0.41878585
-0.11249791
-0.43875643
-0.1184301
-0.45976796
-0.12452599
-0.48188095
-0.13077972
-0.50515797
-0.13718483
-0.52966631
-0.14373314
-0.55547744
-0.15041622
-0.58266579
-0.1572239
-0.61131186
-0.16414505
-0.64149978
-0.17116684
-0.67331965
-0.178274
-0.70686679
-0.18544981
-0.74224311
-0.19267509
-0.77955579
-0.19992772
-0.81892007
-0.20718262
-0.86045754
-0.21441125
-0.90429765
-0.22158089
-0.95057844
-0.2286551
-0.99944556
-0.23559143
-1.0510554
-0.242343
-1.1055708
-0.24885543
-1.1631666
-0.25506634
-1.2240215
-0.26090841
-1.2883332
-0.26630761
-1.3562947
-0.27116885
-1.4281347
-0.27540394
-1.5040739
-0.27889728
-1.5843574
-0.2815297
-1.6692273
-0.28316583
-1.7589553
-0.28366311
-1.8538292
-0.28285993
-1.9541569
-0.28055712
-2.0603225
-0.27656886
-2.1728307
-2.2913436
-0.00028423806
-0.047463038
-0.0008715794
-0.058842117
-0.001321364
-0.057770742
-0.001943831
-0.062539783
-0.0024948608
-0.064448009
-0.0031984185
-0.067865286
-0.0038447484
-0.07093427
-0.0046070616
-0.074232237
-0.0053580567
-0.077766379
-0.0061703375
-0.081347103
-0.007027668
-0.085170924
-0.0079377678
-0.089125433
-0.0089050989
-0.093273643
-0.0099331732
-0.097602635
-0.011027036
-0.10212604
-0.012191521
-0.10685052
-0.013432306
-0.1117849
-0.014754828
-0.11693792
-0.016165139
-0.12231901
-0.017670077
-0.12793758
-0.01927576
-0.13380497
-0.020989825
-0.13993098
-0.02281877
-0.14632841
-0.02477013
-0.15300888
-0.026851642
-0.15998655
-0.029070252
-0.16727526
-0.03143366
-0.17489047
-0.033948891
-0.18284879
-0.036622536
-0.19116855
-0.039461536
-0.19986786
-0.042472067
-0.20896821
-0.045659271
-0.21849156
-0.049028085
-0.22846168
-0.052583333
-0.2389038
-0.056328675
-0.24984523
-0.060266821
-0.26131513
-0.064400574
-0.27334417
-0.068731692
-0.28596507
-0.073261086
-0.29921313
-0.077989688
-0.31312462
-0.082917342
-0.32773873
-0.088043565
-0.34309675
-0.09336793
-0.35924177
-0.098889638
-0.37621961
-0.10460688
-0.39407925
-0.11051811
-0.41287132
-0.11662117
-0.4326498
-0.12291379
-0.45347149
-0.1293934
-0.47539717
-0.13605645
-0.49849041
-0.14289961
-0.52281827
-0.14991857
-0.54845318
-0.15710808
-0.57547054
-0.16446262
-0.60395107
-0.171975
-0.6339806
-0.17963726
-0.66564997
-0.18743926
-0.69905671
-0.19537052
-0.734303
-0.2034174
-0.77149923
-0.21156445
-0.81076241
-0.21979416
-0.85221617
-0.22808576
-0.89599325
-0.23641538
-0.94223473
-0.24475491
-0.99109053
-0.25307352
-1.0427197
-0.26133415
-1.0972914
-0.26949597
-1.1549841
-0.27750851
-1.2159863
-0.28531915
-1.2804977
-0.29286237
-1.3487244
-0.30007287
-1.4208946
-0.30687081
-1.4972436
-0.31316743
-1.5780255
-0.31885753
-1.6634988
-0.32383129
-1.7539403
-0.32797158
-1.849644
-0.33114101
-1.9509381
-0.33318331
-2.0582308
-0.33392515
-2.1720378
-2.2920309
-0.00024589376
-0.04721695
-0.00082207869
-0.05826573
-0.0012417954
-0.057350807
-0.0018891481
-0.061892201
-0.0024212835
-0.063915629
-0.0030997699
-0.067186543
-0.0037217478
-0.070312019
-0.0044441173
-0.073509578
-0.0051833294
-0.077026861
-0.0059795107
-0.080550599
-0.0068265762
-0.084323517
-0.0077281365
-0.08822351
-0.0086910562
-0.09231034
-0.0097193063
-0.096573979
-0.010818633
-0.10102628
-0.011994811
-0.10567389
-0.013254112
-0.11052511
-0.01460328
-0.11558824
-0.016049189
-0.12087256
-0.017598663
-0.12638753
-0.01926046
-0.13214256
-0.021041185
-0.1381496
-0.022949876
-0.14441903
-0.024993992
-0.15096404
-0.027181543
-0.15779822
-0.0295208
-0.16493517
-0.032019332
-0.17239106
-0.034684261
-0.18018292
-0.037523116
-0.18832869
-0.040541975
-0.19684793
-0.043746487
-0.20576256
-0.047142326
-0.21509451
-0.050733892
-0.22486881
-0.054525307
-0.23511099
-0.058519733
-0.24584932
-0.062719822
-0.25711345
-0.067127616
-0.26893466
-0.071744602
-0.28134625
-0.076572295
-0.29438346
-0.081611138
-0.30808366
-0.086861809
-0.32248578
-0.092324854
-0.33763125
-0.098000537
-0.35356344
-0.10388867
-0.37032862
-0.10998992
-0.38797491
-0.11630464
-0.40655327
-0.12283266
-0.42611818
-0.12957431
-0.44672593
-0.13652971
-0.46843753
-0.14369901
-0.49131652
-0.15108141
-0.51543088
-0.1586771
-0.54085206
-0.16648463
-0.56765711
-0.17450249
-0.59592677
-0.18272869
-0.62574737
-0.19116
-0.65721098
-0.1997926
-0.69041569
-0.20862092
-0.72546546
-0.21763852
-0.7624715
-0.22683713
-0.80155265
-0.23620589
-0.84283515
-0.24573271
-0.88645291
-0.25540241
-0.93255013
-0.26519734
-0.98127915
-0.27509587
-1.032803
-0.28507295
-1.0872942
-0.29509869
-1.1449363
-0.30513929
-1.2059213
-0.31515235
-1.2704578
-0.32509271
-1.3387546
-0.33491049
-1.4110446
-0.34453896
-1.4875799
-0.35391396
-1.5686119
-0.36295397
-1.6544168
-0.37157211
-1.7452767
-0.37966884
-1.8414975
-0.38714408
-1.9434086
-0.39387246
-2.0514481
-0.39972001
-2.1661326
-2.2872396
-0.00021333454
-0.047003432
-0.00079123387
-0.057687639
-0.0011890863
-0.056952747
-0.0018473536
-0.061233716
-0.0023511525
-0.063411598
-0.0030233996
-0.066514051
-0.0036440076
-0.069691152
-0.004361045
-0.072792266
-0.0051020386
-0.076285577
-0.0058979361
-0.079754393
-0.0067522054
-0.083468921
-0.0076654996
-0.08730987
-0.0086461311
-0.091329342
-0.0096989385
-0.095520783
-0.010830617
-0.099894192
-0.012047938
-0.10445613
-0.013358165
-0.10921442
-0.01476875
-0.11417717
-0.016288268
-0.11935252
-0.01792481
-0.12475043
-0.019686829
-0.13037995
-0.021583436
-0.13625237
-0.023622973
-0.14237883
-0.025814353
-0.14877195
-0.028166493
-0.15544532
-0.030686981
-0.16241388
-0.033383824
-0.16969336
-0.036264453
-0.17730138
-0.039335725
-0.18525644
-0.04260292
-0.1935797
-0.04607246
-0.2022919
-0.049748124
-0.21141765
-0.053634556
-0.2209811
-0.057734341
-0.23100984
-0.062050061
-0.24153213
-0.066584382
-0.25257756
-0.071338936
-0.26417842
-0.07631496
-0.27636841
-0.081513901
-0.28918256
-0.086937293
-0.30265815
-0.0925864
-0.3168344
-0.098462789
-0.33175241
-0.10456793
-0.34745565
-0.11090425
-0.36398943
-0.11747395
-0.3814021
-0.12427929
-0.39974456
-0.13132382
-0.41907
-0.13860994
-0.43943584
-0.1461416
-0.46090156
-0.15392209
-0.48353135
-0.16195521
-0.50739265
-0.17024383
-0.53255786
-0.17879177
-0.55910307
-0.18760235
-0.58710953
-0.19667811
-0.61666432
-0.20602148
-0.64785962
-0.21563455
-0.68079385
-0.22551805
-0.7155723
-0.23567206
-0.75230687
-0.24609523
-0.79111777
-0.25678595
-0.83213149
-0.26773944
-0.87548514
-0.27895007
-0.9213237
-0.29040995
-0.96980179
-0.30210858
-1.021085
-0.31403265
-1.0753487
-0.32616558
-1.1327796
-0.33848459
-1.1935761
-0.35096703
-1.2579464
-0.36358116
-1.3261086
-0.37628774
-1.3983031
-0.38905434
-1.4747749
-0.40182504
-1.555799
-0.41454243
-1.6416533
-0.4271398
-1.732629
-0.4395557
-1.8290267
-0.45170356
-1.9312011
-0.46350008
-2.0395914
-0.47484749
-2.1547201
-2.2765453
-0.00019245342
-0.046810804
-0.00078983643
-0.057090074
-0.0011840367
-0.056558351
-0.0018362038
-0.060581343
-0.0023335451
-0.062914037
-0.0030091929
-0.065838171
-0.0036439388
-0.069056159
-0.0043650712
-0.072070872
-0.005127444
-0.075522927
-0.0059438318
-0.078937712
-0.0068266708
-0.082585771
-0.0077755498
-0.086360661
-0.0088000049
-0.090304537
-0.0099061715
-0.094414245
-0.011101861
-0.098698109
-0.012395087
-0.10316249
-0.01379445
-0.10781461
-0.015308963
-0.11266218
-0.016947454
-0.11771352
-0.018720087
-0.12297726
-0.020635888
-0.12846359
-0.022704753
-0.1341829
-0.024935737
-0.14014721
-0.027338162
-0.14636884
-0.029920751
-0.15286201
-0.032691739
-0.15964212
-0.035658258
-0.16672601
-0.038827502
-0.17413125
-0.042204911
-0.18187808
-0.04579639
-0.1899872
-0.049605575
-0.19848163
-0.053636372
-0.20738569
-0.0578918
-0.21672442
-0.062374108
-0.22652619
-0.067085414
-0.23681938
-0.072027603
-0.24763381
-0.077202021
-0.25900232
-0.082610812
-0.27095781
-0.088255632
-0.28353579
-0.094138959
-0.29677272
-0.10026348
-0.3107076
-0.10663239
-0.32538103
-0.11324971
-0.34083566
-0.12011959
-0.35711665
-0.12724681
-0.37427175
-0.13463724
-0.39235071
-0.14229667
-0.41140686
-0.15023171
-0.43149675
-0.15844908
-0.45267979
-0.16695625
-0.47501936
-0.17576076
-0.49858289
-0.18487108
-0.5234418
-0.19429492
-0.54967295
-0.20404064
-0.57735692
-0.21411601
-0.60658138
-0.22452988
-0.63743743
-0.23528948
-0.67002509
-0.24640254
-0.70444914
-0.25787632
-0.74082192
-0.26971759
-0.77926417
-0.28193181
-0.81990362
-0.29452406
-0.86287777
-0.30749805
-0.90833294
-0.3208561
-0.95642514
-0.33459925
-1.0073212
-0.34872616
-1.0611989
-0.36323288
-1.1182475
-0.37811219
-1.1786685
-0.39335718
-1.2426701
-0.40894793
-1.3104833
-0.42487226
-1.3823406
-0.44110353
-1.4585016
-0.45761792
-1.5392384
-0.4743826
-1.6248379
-0.49135085
-1.7156052
-0.50847972
-1.811837
-0.52571751
-1.9138979
-0.54301759
-2.0222247
-0.56031303
-2.1373505
-2.2594668
-0.00017299513
-0.046637645
-0.00079831106
-0.056464586
-0.0011967348
-0.056159741
-0.0018610807
-0.059916802
-0.0023749453
-0.062399964
-0.0030648882
-0.065148007
-0.0037275721
-0.068393241
-0.0044715995
-0.071326596
-0.0052727104
-0.074721553
-0.0061314865
-0.078078656
-0.0070666584
-0.081650303
-0.0080784211
-0.085348584
-0.0091771585
-0.089205466
-0.01037071
-0.09322034
-0.011668281
-0.097400161
-0.013079389
-0.10175098
-0.014613996
-0.10627958
-0.016282446
-0.11099328
-0.018095269
-0.11590022
-0.020062671
-0.12100935
-0.022195359
-0.12633035
-0.024503225
-0.13187446
-0.02699575
-0.13765406
-0.029682369
-0.14368156
-0.032571055
-0.14997261
-0.035669211
-0.1565432
-0.038984067
-0.16341034
-0.042520401
-0.17059405
-0.046283258
-0.1781143
-0.050276295
-0.18599317
-0.054502593
-0.19425427
-0.05896482
-0.20292232
-0.063663944
-0.21202406
-0.068602818
-0.22158598
-0.073782514
-0.23163825
-0.079204663
-0.24221012
-0.084871886
-0.25333344
-0.090786241
-0.26504165
-0.096951748
-0.27736834
-0.10337206
-0.2903503
-0.11005176
-0.30402562
-0.11699634
-0.31843397
-0.1242125
-0.3336168
-0.13170717
-0.34961906
-0.13948844
-0.36648729
-0.14756531
-0.38427038
-0.15594715
-0.40302123
-0.16464419
-0.42279558
-0.17366765
-0.44365181
-0.18302879
-0.46565327
-0.19274008
-0.4888662
-0.20281341
-0.51336253
-0.21326278
-0.53921707
-0.22410107
-0.56651148
-0.23534269
-0.59533188
-0.24700114
-0.6257703
-0.25909139
-0.65792525
-0.27162765
-0.69190228
-0.28462432
-0.72781352
-0.29809666
-0.76577881
-0.31205839
-0.80592745
-0.32652394
-0.84839618
-0.34150728
-0.89333179
-0.35702157
-0.94089104
-0.37307892
-0.99124184
-0.38969112
-1.0445622
-0.40686849
-1.1010428
-0.42462012
-1.1608865
-0.44294901
-1.2243074
-0.4618599
-1.2915349
-0.48135268
-1.3628063
-0.50142757
-1.4383808
-0.52207872
-1.5185367
-0.54329136
-1.6035695
-0.56505553
-1.6937797
-0.58734406
-1.7894813
-0.6101453
-1.891025
-0.63342973
-1.9988663
-0.65717281
-2.1135225
-2.2354586
-0.0001591597
-0.04647833
-0.00082694086
-0.055796643
-0.0012354731
-0.055751033
-0.0019280929
-0.059223998
-0.0024732289
-0.061854631
-0.0031909437
-0.064430083
-0.0039037381
-0.067680225
-0.0046910653
-0.070539033
-0.0055542116
-0.073858157
-0.0064827709
-0.077149831
-0.0074998375
-0.080632954
-0.008607748
-0.084240374
-0.009818047
-0.087994849
-0.011140712
-0.091897336
-0.012586544
-0.09595397
-0.01416687
-0.10017027
-0.015893114
-0.10455293
-0.017776828
-0.10910913
-0.019829482
-0.1138471
-0.022062244
-0.1187761
-0.024485577
-0.12390649
-0.027109732
-0.12924974
-0.029944145
-0.13481905
-0.032996494
-0.14062857
-0.036274336
-0.14669409
-0.039783543
-0.15303326
-0.043528768
-0.15966433
-0.047514029
-0.16660794
-0.051742076
-0.17388535
-0.056214823
-0.18151945
-0.06093359
-0.18953445
-0.065900042
-0.19795473
-0.071115245
-0.20680764
-0.076580622
-0.21611929
-0.082298382
-0.22591907
-0.088270984
-0.23623598
-0.094501745
-0.24710101
-0.10099566
-0.25854594
-0.10775706
-0.27060499
-0.114793
-0.28331223
-0.12211041
-0.29670591
-0.12971868
-0.3108232
-0.13762631
-0.32570645
-0.1458442
-0.3413982
-0.15438443
-0.35794383
-0.16325874
-0.37539253
-0.17248092
-0.39379518
-0.18206551
-0.41320675
-0.19202734
-0.43368535
-0.20238284
-0.45529269
-0.21314839
-0.47809506
-0.22434239
-0.50216239
-0.2359824
-0.52757031
-0.24808768
-0.55439875
-0.26067847
-0.58273287
-0.27377504
-0.61266464
-0.28739829
-0.64429195
-0.30157077
-0.67771866
-0.31631468
-0.71305725
-0.33165253
-0.75042722
-0.3476081
-0.78995659
-0.36420563
-0.83178164
-0.38146926
-0.8760492
-0.39942302
-0.92291614
-0.41809263
-0.97254867
-0.43750249
-1.025126
-0.45767694
-1.080839
-0.47863976
-1.1398909
-0.50041228
-1.2024984
-0.5230183
-1.2688882
-0.54647596
-1.3393035
-0.57080259
-1.4140041
-0.59601722
-1.4932668
-0.62213771
-1.577388
-0.64916802
-1.6666819
-0.67711591
-1.7614594
-0.7059919
-1.8620707
-0.73580303
-1.9689726
-0.76654898
-2.0826794
-2.2039012
-0.0001515209
-0.046326663
-0.00088106046
-0.05506695
-0.0013021587
-0.055329769
-0.0020397252
-0.058486257
-0.002633748
-0.061260421
-0.0033976637
-0.06366597
-0.0041833042
-0.066894374
-0.0050390443
-0.06968307
-0.0059899845
-0.072906979
-0.0070198938
-0.076119669
-0.0081542955
-0.079498285
-0.0093990886
-0.082995295
-0.010767381
-0.086626252
-0.012271264
-0.09039313
-0.013923427
-0.094301463
-0.015736586
-0.098356746
-0.017723478
-0.10256565
-0.019896442
-0.10693575
-0.022267455
-0.11147565
-0.02484768
-0.1161954
-0.027647492
-0.12110618
-0.030675768
-0.12622092
-0.033940175
-0.13155406
-0.037447392
-0.13712073
-0.041201862
-0.14293895
-0.045207544
-0.14902687
-0.04946617
-0.15540494
-0.053979393
-0.16209389
-0.058748117
-0.16911573
-0.063772559
-0.17649405
-0.069053544
-0.18425243
-0.074591558
-0.1924156
-0.080388466
-0.20100953
-0.086446244
-0.21006021
-0.092768592
-0.21959531
-0.09935936
-0.22964368
-0.10622475
-0.24023396
-0.11337096
-0.25139792
-0.12080704
-0.26316695