/*--------------------------------*- C++ -*----------------------------------*\
| =========                 |                                                 |
| \\      /  F ield         | OpenFOAM: The Open Source CFD Toolbox           |
|  \\    /   O peration     | Version:  2512                                  |
|   \\  /    A nd           | Website:  www.openfoam.com                      |
|    \\/     M anipulation  |                                                 |
\*---------------------------------------------------------------------------*/
FoamFile
{
    version     2.0;
    format      ascii;
    arch        "LSB;label=32;scalar=64";
    class       volScalarField;
    location    "0.142";
    object      rho;
}
// * * * * * * * * * * * * * * * * * * * * * * * * * * * * * * * * * * * * * //

dimensions      [1 -3 0 0 0 0 0];

internalField   nonuniform List<scalar> 
16000
(
1.0644752
1.0951428
1.0786382
1.0888757
1.0829054
1.0872779
1.0853756
1.0875352
1.0872835
1.0885784
1.0890648
1.0900723
1.0908788
1.0918481
1.0928087
1.0938336
1.0948941
1.096
1.0971482
1.0983393
1.0995729
1.1008486
1.1021661
1.1035245
1.104923
1.1063606
1.1078359
1.1093473
1.110893
1.1124709
1.1140785
1.1157131
1.1173717
1.1190512
1.1207479
1.122458
1.1241777
1.1259027
1.1276287
1.1293514
1.1310661
1.1327685
1.134454
1.1361184
1.1377575
1.1393673
1.140944
1.1424841
1.1439845
1.1454423
1.1468549
1.1482202
1.1495363
1.1508019
1.1520156
1.1531766
1.1542844
1.1553386
1.1563392
1.1572864
1.1581802
1.159021
1.1598094
1.1605455
1.1612297
1.1618622
1.1624436
1.1629746
1.1634558
1.163888
1.1642709
1.1646035
1.1648859
1.1651201
1.1653093
1.1654589
1.1655578
1.1655354
1.1658783
1.1649788
1.0612447
1.0924676
1.0753774
1.0861993
1.0799076
1.084651
1.0825632
1.0849567
1.0846677
1.0860795
1.0866198
1.087702
1.0885898
1.0896342
1.0906807
1.0917897
1.0929397
1.0941371
1.0953799
1.0966683
1.0980015
1.0993792
1.1008004
1.1022642
1.1037693
1.1053143
1.1068974
1.1085165
1.1101693
1.1118532
1.1135652
1.1153021
1.1170602
1.1188358
1.1206246
1.1224225
1.1242248
1.1260269
1.1278241
1.1296114
1.1313842
1.1331378
1.1348675
1.1365691
1.1382384
1.1398715
1.141465
1.1430157
1.1445209
1.1459781
1.1473853
1.148741
1.1500439
1.151293
1.1524878
1.153628
1.1547134
1.1557444
1.1567212
1.1576444
1.1585147
1.1593325
1.1600986
1.1608136
1.1614779
1.162092
1.1626561
1.163171
1.1636375
1.164056
1.1644264
1.1647476
1.1650189
1.1652422
1.1654213
1.1655588
1.1656356
1.1656635
1.1658476
1.1651008
1.0584514
1.0900222
1.0726117
1.0837079
1.0773231
1.0822185
1.0801522
1.0826261
1.0824098
1.0838865
1.0845149
1.085669
1.0866484
1.0877765
1.0889166
1.0901193
1.0913672
1.0926649
1.0940106
1.0954041
1.0968444
1.0983308
1.0998621
1.1014369
1.1030536
1.1047103
1.1064047
1.1081343
1.1098963
1.1116872
1.1135037
1.1153417
1.117197
1.1190652
1.1209414
1.1228209
1.1246984
1.1265688
1.128427
1.1302678
1.1320863
1.1338775
1.135637
1.1373605
1.139044
1.1406841
1.1422777
1.1438222
1.1453152
1.1467551
1.1481405
1.1494705
1.1507444
1.151962
1.1531234
1.1542288
1.1552788
1.156274
1.1572153
1.1581036
1.1589398
1.159725
1.1604598
1.1611453
1.1617818
1.1623699
1.16291
1.1634027
1.1638486
1.1642484
1.1646017
1.1649073
1.1651643
1.1653744
1.1655414
1.1656639
1.1657282
1.1657784
1.1658274
1.165275
1.0559628
1.0878424
1.0700806
1.0815015
1.0749722
1.0801238
1.0780413
1.0806498
1.0804948
1.0820623
1.0827889
1.0840293
1.0851151
1.0863405
1.0875879
1.0888972
1.0902554
1.0916653
1.0931255
1.0946351
1.0961933
1.0977988
1.0994502
1.1011457
1.1028831
1.1046601
1.1064738
1.108321
1.110198
1.1121008
1.1140252
1.1159663
1.1179193
1.1198787
1.1218392
1.1237951
1.1257409
1.1276708
1.1295793
1.1314611
1.133311
1.1351243
1.1368966
1.1386239
1.1403027
1.1419301
1.1435035
1.1450211
1.1464813
1.1478833
1.1492264
1.1505105
1.1517358
1.1529029
1.1540124
1.1550654
1.156063
1.1570063
1.1578967
1.1587356
1.1595241
1.1602635
1.160955
1.1615994
1.1621975
1.1627498
1.1632566
1.1637185
1.164136
1.1645096
1.164839
1.1651228
1.1653596
1.1655511
1.1656994
1.1658022
1.165857
1.1658915
1.1658702
1.1654306
1.0538598
1.0860623
1.0679777
1.079711
1.0729631
1.0784075
1.0763401
1.0790713
1.0790072
1.0806661
1.0815112
1.0828447
1.0840484
1.0853802
1.0867432
1.0881678
1.0896448
1.0911756
1.0927589
1.0943939
1.0960791
1.097813
1.0995936
1.1014184
1.1032848
1.1051895
1.1071288
1.1090986
1.1110944
1.1131113
1.1151439
1.1171865
1.1192334
1.1212783
1.1233152
1.1253376
1.1273395
1.1293149
1.1312579
1.1331631
1.1350256
1.1368409
1.1386048
1.1403141
1.1419659
1.1435581
1.1450889
1.1465574
1.1479631
1.1493059
1.1505863
1.1518049
1.152963
1.1540618
1.1551028
1.1560877
1.157018
1.1578956
1.1587223
1.1594996
1.1602291
1.1609124
1.1615507
1.1621451
1.1626963
1.1632049
1.1636712
1.1640956
1.1644785
1.1648202
1.1651205
1.1653775
1.1655901
1.165759
1.1658846
1.1659664
1.1660088
1.1660172
1.1659374
1.1656086
1.0521554
1.0846646
1.0663005
1.0783447
1.071562
1.0771307
1.0750723
1.0779552
1.0779933
1.0797507
1.0807241
1.0821538
1.0834813
1.0849268
1.0864137
1.0879638
1.0895707
1.0912346
1.092954
1.0947275
1.0965531
1.0984284
1.1003505
1.1023164
1.1043222
1.1063636
1.1084359
1.110534
1.1126521
1.1147842
1.1169238
1.1190644
1.1211989
1.1233205
1.1254223
1.1274973
1.1295392
1.1315416
1.1334989
1.1354057
1.1372576
1.1390504
1.1407811
1.142447
1.1440463
1.145578
1.1470413
1.1484366
1.1497643
1.1510256
1.152222
1.153355
1.1544269
1.1554396
1.1563954
1.1572965
1.1581453
1.1589438
1.1596941
1.1603984
1.1610583
1.1616755
1.1622514
1.1627872
1.1632836
1.1637411
1.16416
1.1645405
1.1648829
1.1651873
1.1654533
1.165679
1.1658632
1.1660052
1.1661041
1.166163
1.1661894
1.1661622
1.1660379
1.1658016
1.050846
1.0836618
1.0650455
1.0773944
1.0705522
1.0763027
1.0743172
1.0773068
1.0774774
1.0793
1.0804111
1.0819454
1.0834109
1.0849871
1.0866154
1.0883099
1.0900656
1.0918815
1.0937555
1.0956853
1.097668
1.0997002
1.1017782
1.1038976
1.1060534
1.1082401
1.1104515
1.1126813
1.1149224
1.1171674
1.1194087
1.1216386
1.1238492
1.1260329
1.1281821
1.1302897
1.132349
1.1343539
1.1362991
1.13818
1.1399926
1.1417341
1.1434023
1.1449959
1.1465144
1.1479579
1.1493274
1.1506242
1.1518502
1.1530077
1.1540992
1.1551274
1.1560951
1.1570054
1.1578609
1.1586646
1.1594192
1.1601271
1.1607907
1.1614122
1.1619936
1.1625366
1.1630426
1.1635128
1.1639479
1.1643484
1.1647144
1.1650459
1.165343
1.1656057
1.1658332
1.1660239
1.1661762
1.166288
1.1663571
1.1663919
1.1663986
1.1663293
1.1661685
1.1660232
1.0498662
1.0829902
1.0641419
1.0768479
1.0699481
1.0759194
1.0739492
1.0771175
1.0773315
1.0792778
1.080567
1.0822374
1.08387
1.0856051
1.0874004
1.0892641
1.0911921
1.0931824
1.0952322
1.0973381
1.0994963
1.1017022
1.1039506
1.1062357
1.108551
1.1108894
1.1132433
1.1156046
1.1179648
1.1203152
1.1226469
1.1249512
1.1272194
1.1294432
1.131615
1.1337276
1.1357746
1.1377506
1.1396511
1.1414724
1.1432121
1.1448687
1.1464416
1.1479311
1.1493382
1.1506648
1.1519133
1.1530864
1.1541873
1.1552195
1.1561865
1.1570921
1.1579397
1.1587329
1.1594752
1.1601697
1.1608194
1.1614272
1.1619954
1.1625264
1.1630222
1.1634844
1.1639146
1.1643138
1.1646826
1.1650214
1.1653301
1.1656085
1.1658565
1.1660739
1.1662596
1.1664123
1.16653
1.1666086
1.166646
1.1666557
1.1666389
1.1665224
1.1663338
1.1662755
1.0492344
1.0826583
1.0635951
1.0767296
1.0696628
1.0757585
1.0739269
1.077203
1.0777332
1.0797991
1.0812919
1.0831213
1.0849435
1.0868629
1.0888495
1.0909071
1.0930316
1.0952197
1.0974674
1.0997701
1.1021222
1.1045176
1.1069494
1.1094099
1.1118907
1.1143829
1.116877
1.1193632
1.1218314
1.1242716
1.1266738
1.1290284
1.1313263
1.1335592
1.1357194
1.1378006
1.1397972
1.1417051
1.1435212
1.1452438
1.1468721
1.1484067
1.1498488
1.1512007
1.1524653
1.1536462
1.1547473
1.1557728
1.1567272
1.1576148
1.1584404
1.1592081
1.1599222
1.1605867
1.1612053
1.1617815
1.1623185
1.162819
1.1632856
1.1637205
1.1641258
1.1645029
1.1648532
1.1651776
1.1654767
1.1657506
1.165999
1.1662217
1.1664181
1.1665876
1.1667294
1.1668421
1.1669231
1.1669665
1.1669712
1.1669556
1.1669114
1.1667453
1.1665383
1.1665638
1.0489951
1.0827122
1.063452
1.0769483
1.0698159
1.0762949
1.0746101
1.0780014
1.0787155
1.080925
1.0826518
1.0846702
1.0867099
1.0888436
1.0910501
1.0933297
1.0956773
1.0980883
1.1005569
1.1030766
1.1056398
1.1082384
1.110863
1.1135038
1.1161502
1.118791
1.1214147
1.1240097
1.1265646
1.129068
1.1315092
1.1338784
1.1361665
1.1383657
1.1404697
1.1424732
1.1443727
1.146166
1.1478524
1.1494323
1.1509077
1.1522811
1.1535564
1.1547377
1.15583
1.1568384
1.1577683
1.1586253
1.1594148
1.1601422
1.1608126
1.1614308
1.1620015
1.1625288
1.1630167
1.1634686
1.1638877
1.1642767
1.1646381
1.1649739
1.1652859
1.1655755
1.1658438
1.1660915
1.1663191
1.1665265
1.1667133
1.1668787
1.1670221
1.1671426
1.1672391
1.1673108
1.167354
1.1673611
1.1673334
1.1672925
1.1672171
1.1670015
1.1667883
1.1668926
1.0492211
1.0832276
1.063784
1.0775049
1.070533
1.0771487
1.0758221
1.0792605
1.0803611
1.0827383
1.0847337
1.0869773
1.089266
1.0916472
1.0941051
1.0966369
1.0992359
1.1018955
1.1046073
1.1073625
1.1101508
1.1129612
1.1157817
1.1185996
1.1214017
1.1241746
1.1269049
1.1295792
1.132185
1.1347103
1.1371444
1.1394779
1.1417031
1.1438138
1.1458056
1.147676
1.1494241
1.1510508
1.1525582
1.1539498
1.1552301
1.1564044
1.1574786
1.1584593
1.1593529
1.1601661
1.1609055
1.1615776
1.1621887
1.1627444
1.1632505
1.1637118
1.1641332
1.1645188
1.1648724
1.1651974
1.1654966
1.1657728
1.1660279
1.166264
1.1664823
1.1666842
1.1668704
1.1670414
1.1671975
1.1673383
1.1674633
1.1675715
1.1676618
1.1677331
1.1677846
1.1678151
1.16782
1.1677911
1.1677326
1.1676665
1.1675558
1.1672926
1.1670861
1.1672666
1.0499715
1.0842663
1.0646776
1.0787768
1.0720068
1.0787895
1.0776835
1.0813455
1.0827591
1.0853377
1.0876361
1.0901459
1.09272
1.0953861
1.0981306
1.1009474
1.1038273
1.1067605
1.1097357
1.1127403
1.1157609
1.1187828
1.1217909
1.1247696
1.1277028
1.130575
1.133371
1.1360766
1.1386789
1.1411664
1.1435298
1.1457617
1.1478568
1.1498121
1.1516268
1.1533019
1.1548402
1.1562462
1.1575255
1.1586847
1.1597311
1.1606724
1.1615168
1.1622723
1.1629468
1.1635482
1.1640837
1.1645605
1.164985
1.1653632
1.1657007
1.1660025
1.166273
1.1665162
1.1667357
1.1669345
1.1671151
1.1672798
1.1674304
1.1675684
1.167695
1.1678109
1.1679168
1.1680128
1.168099
1.1681747
1.1682393
1.1682915
1.1683299
1.1683532
1.1683606
1.1683507
1.168318
1.1682547
1.1681684
1.1680769
1.167927
1.1676224
1.1674371
1.1676829
1.0512333
1.0858125
1.0661151
1.0805624
1.0741034
1.0810422
1.0803556
1.0841649
1.0859986
1.088826
1.0914709
1.0942968
1.0972001
1.1001937
1.1032634
1.1063991
1.109588
1.1128159
1.1160674
1.1193256
1.1225728
1.1257907
1.1289604
1.1320631
1.1350808
1.1379961
1.1407934
1.1434588
1.1459809
1.1483508
1.1505621
1.1526114
1.154498
1.1562233
1.1577911
1.1592071
1.1604782
1.1616128
1.1626198
1.1635089
1.1642897
1.1649721
1.1655655
1.1660793
1.1665223
1.1669026
1.1672279
1.1675054
1.1677415
1.1679418
1.1681118
1.1682559
1.1683783
1.1684825
1.1685716
1.1686481
1.1687141
1.1687715
1.1688216
1.1688656
1.1689042
1.1689378
1.1689668
1.1689911
1.1690104
1.1690239
1.1690307
1.1690294
1.1690183
1.1689959
1.1689614
1.1689129
1.168844
1.1687493
1.1686392
1.1685222
1.1683303
1.1679949
1.167845
1.1681398
1.0530922
1.0879449
1.0682039
1.0830995
1.0768992
1.0841011
1.0838924
1.0879078
1.0902092
1.093345
1.0963851
1.0995828
1.1028647
1.1062311
1.1096648
1.1131501
1.116669
1.1202019
1.1237282
1.127226
1.1306727
1.134046
1.1373235
1.1404844
1.1435094
1.1463816
1.149087
1.1516147
1.1539574
1.1561112
1.1580753
1.1598523
1.1614472
1.1628671
1.1641212
1.1652196
1.1661737
1.1669952
1.1676959
1.1682877
1.168782
1.1691897
1.1695213
1.1697864
1.169994
1.1701522
1.1702685
1.1703496
1.1704013
1.170429
1.1704373
1.1704301
1.170411
1.170383
1.1703484
1.1703093
1.1702673
1.1702237
1.1701795
1.1701353
1.1700914
1.1700481
1.1700052
1.1699624
1.1699191
1.1698745
1.1698273
1.169776
1.1697187
1.1696539
1.1695807
1.1694961
1.1693936
1.1692715
1.1691423
1.1689998
1.1687645
1.1684134
1.1683125
1.1686363
1.0556062
1.0907105
1.0710639
1.0863946
1.0805724
1.0880461
1.0884398
1.0926958
1.0955418
1.0990641
1.1025602
1.1061931
1.1099063
1.1136892
1.1175187
1.1213726
1.125226
1.1290531
1.1328267
1.1365194
1.1401039
1.1435545
1.1468472
1.1499612
1.1528794
1.1555887
1.1580804
1.1603502
1.162398
1.1642274
1.1658453
1.1672611
1.1684865
1.1695345
1.1704192
1.1711549
1.1717561
1.172237
1.1726114
1.1728923
1.1730917
1.1732211
1.1732907
1.17331
1.1732873
1.1732303
1.1731456
1.1730392
1.1729162
1.1727812
1.1726378
1.1724894
1.1723387
1.172188
1.1720391
1.1718934
1.171752
1.1716156
1.1714847
1.1713596
1.1712403
1.1711264
1.1710177
1.1709135
1.170813
1.1707153
1.1706189
1.170522
1.1704227
1.1703198
1.1702116
1.1700941
1.1699617
1.1698172
1.1696734
1.1695061
1.1692276
1.1688771
1.1688406
1.1691674
1.0588423
1.094141
1.0748594
1.0905598
1.0853233
1.0930337
1.0941662
1.098744
1.1022145
1.1062145
1.1102325
1.1143613
1.1185513
1.1227811
1.1270198
1.1312366
1.1353983
1.1394711
1.1434211
1.1472159
1.1508259
1.1542251
1.1573922
1.1603114
1.1629727
1.1653715
1.1675088
1.16939
1.1710246
1.1724254
1.1736072
1.1745868
1.1753817
1.1760096
1.1764883
1.1768348
1.1770655
1.1771958
1.1772399
1.1772108
1.1771204
1.1769793
1.1767972
1.1765824
1.1763425
1.1760839
1.1758122
1.1755325
1.1752488
1.1749646
1.1746829
1.174406
1.1741361
1.1738744
1.1736223
1.1733806
1.1731497
1.1729299
1.1727213
1.1725237
1.1723366
1.1721597
1.171992
1.1718329
1.1716814
1.1715362
1.1713958
1.1712585
1.1711223
1.1709859
1.1708471
1.1707009
1.170543
1.1703814
1.1702268
1.1700366
1.1697185
1.1693781
1.1694216
1.1697273
1.0628829
1.0983245
1.0796779
1.095757
1.0913
1.0993156
1.1013419
1.1063372
1.1105111
1.1150776
1.1196767
1.1243486
1.1290421
1.1337227
1.1383485
1.1428773
1.1472663
1.1514745
1.1554641
1.1592022
1.1626627
1.1658262
1.1686813
1.1712238
1.1734561
1.1753867
1.1770289
1.1783997
1.1795188
1.1804073
1.1810874
1.1815809
1.1819097
1.1820941
1.1821537
1.1821065
1.181969
1.1817562
1.1814815
1.1811571
1.1807935
1.1804001
1.179985
1.1795554
1.1791173
1.178676
1.1782358
1.1778004
1.177373
1.176956
1.1765513
1.1761607
1.1757852
1.1754257
1.1750826
1.1747563
1.1744467
1.1741537
1.1738768
1.1736156
1.1733692
1.1731369
1.1729178
1.1727107
1.1725146
1.1723281
1.1721496
1.1719773
1.1718096
1.1716448
1.1714801
1.1713098
1.1711321
1.1709582
1.1707948
1.1705851
1.1702399
1.1699157
1.1700352
1.1703222
1.0679141
1.1037176
1.0857734
1.1023149
1.0988552
1.1072273
1.1102956
1.1158105
1.1207551
1.1259681
1.131194
1.1364307
1.1416157
1.1466973
1.1516195
1.1563293
1.1607779
1.1649236
1.1687331
1.1721834
1.1752614
1.1779639
1.1802963
1.1822715
1.1839082
1.1852293
1.1862608
1.1870299
1.1875644
1.1878917
1.1880379
1.1880279
1.1878847
1.1876293
1.1872808
1.1868563
1.1863708
1.1858379
1.1852692
1.184675
1.184064
1.1834438
1.1828209
1.1822007
1.1815877
1.1809859
1.1803981
1.1798271
1.1792746
1.1787423
1.1782313
1.1777422
1.1772757
1.1768317
1.1764103
1.1760112
1.175634
1.175278
1.1749426
1.1746267
1.1743296
1.1740499
1.1737868
1.1735388
1.1733048
1.1730833
1.1728727
1.1726713
1.1724775
1.1722895
1.1721036
1.1719145
1.171723
1.1715417
1.1713703
1.1711445
1.1707911
1.1704933
1.1706725
1.170947
1.0742302
1.110554
1.0933462
1.1105814
1.1083494
1.117117
1.121382
1.1275432
1.1333232
1.1392442
1.1451056
1.1508653
1.1564431
1.1617699
1.1667813
1.1714229
1.1756529
1.1794433
1.1827798
1.1856613
1.1880982
1.1901097
1.1917226
1.1929682
1.1938804
1.1944947
1.194846
1.1949683
1.1948935
1.1946513
1.1942688
1.1937704
1.1931779
1.1925106
1.1917853
1.1910167
1.1902177
1.1893992
1.1885704
1.1877393
1.1869125
1.1860957
1.1852935
1.1845095
1.1837469
1.1830081
1.1822948
1.1816086
1.1809502
1.1803204
1.1797195
1.1791474
1.178604
1.178089
1.1776016
1.1771413
1.1767072
1.1762983
1.1759136
1.175552
1.1752123
1.1748932
1.1745933
1.1743114
1.1740461
1.1737958
1.173559
1.1733341
1.1731197
1.1729135
1.1727113
1.1725089
1.1723098
1.1721259
1.1719472
1.1717066
1.1713588
1.1711111
1.1713386
1.1715751
1.0821044
1.1190988
1.1028725
1.1208245
1.1202011
1.1294508
1.1350743
1.1420263
1.1486708
1.1552816
1.1616739
1.1677714
1.1734829
1.1787375
1.1834813
1.1876801
1.1913195
1.1944024
1.1969468
1.1989822
1.2005464
1.2016822
1.2024348
1.20285
1.2029721
1.2028431
1.2025017
1.2019833
1.2013196
1.2005387
1.1996653
1.1987209
1.197724
1.1966906
1.1956342
1.1945664
1.1934969
1.1924337
1.1913835
1.190352
1.1893436
1.188362
1.1874099
1.1864895
1.1856026
1.1847501
1.1839329
1.1831514
1.1824056
1.1816953
1.1810202
1.1803797
1.1797731
1.1791994
1.1786577
1.178147
1.177666
1.1772137
1.1767886
1.1763895
1.176015
1.1756637
1.175334
1.1750248
1.1747343
1.1744611
1.1742037
1.1739607
1.1737307
1.1735111
1.1732974
1.1730872
1.1728862
1.1727035
1.1725199
1.172269
1.1719366
1.1717505
1.1720194
1.1721987
1.0917435
1.1296514
1.1151159
1.1336506
1.1351014
1.1449513
1.1520153
1.1598146
1.1672054
1.1742868
1.180883
1.1869085
1.1922903
1.1969875
1.2009864
1.2042975
1.2069511
1.2089916
1.210473
1.2114542
1.2119956
1.2121565
1.2119929
1.2115566
1.2108947
1.2100488
1.209056
1.207948
1.2067526
1.2054934
1.2041903
1.2028604
1.2015179
1.2001745
1.1988402
1.1975229
1.1962292
1.1949644
1.1937327
1.1925374
1.191381
1.1902654
1.1891918
1.1881611
1.1871736
1.1862295
1.1853285
1.1844701
1.1836537
1.1828786
1.1821437
1.181448
1.1807903
1.1801693
1.1795839
1.1790325
1.1785138
1.1780265
1.177569
1.1771399
1.1767376
1.1763607
1.1760076
1.1756769
1.1753669
1.1750762
1.1748034
1.1745473
1.1743062
1.1740773
1.1738567
1.1736437
1.1734454
1.1732665
1.1730803
1.1728271
1.1725212
1.1723966
1.1726876
1.1728032
1.1039521
1.143117
1.1308694
1.1500387
1.1539947
1.1644689
1.1728051
1.1812366
1.1889556
1.1959739
1.2021638
1.2074814
1.2119146
1.2154875
1.2182495
1.2202679
1.2216202
1.2223878
1.2226518
1.2224889
1.2219701
1.2211593
1.220113
1.2188801
1.217503
1.2160177
1.2144546
1.212839
1.2111924
1.2095322
1.2078729
1.2062263
1.204602
1.2030078
1.2014497
1.1999326
1.1984601
1.1970351
1.1956595
1.1943348
1.1930616
1.1918403
1.190671
1.1895534
1.1884868
1.1874704
1.1865033
1.1855844
1.1847125
1.1838862
1.1831041
1.1823647
1.1816667
1.1810084
1.1803883
1.1798048
1.1792564
1.1787415
1.1782585
1.1778059
1.177382
1.1769853
1.1766142
1.1762672
1.1759427
1.1756393
1.1753556
1.1750906
1.1748423
1.1746079
1.1743843
1.1741729
1.1739805
1.1738067
1.1736205
1.1733736
1.1731038
1.1730316
1.1733188
1.1733824
1.1202004
1.16061
1.1514719
1.17099
1.1777169
1.1885996
1.1975805
1.2059562
1.2131893
1.219301
1.2242719
1.2281518
1.2310197
1.2329778
1.2341381
1.2346143
1.2345152
1.2339411
1.2329815
1.2317147
1.2302082
1.2285189
1.2266948
1.2247755
1.2227938
1.2207767
1.2187459
1.2167192
1.2147107
1.2127318
1.2107915
1.2088967
1.2070528
1.2052638
1.2035326
1.2018614
1.2002514
1.1987033
1.1972173
1.1957932
1.1944304
1.1931282
1.1918855
1.1907011
1.1895736
1.1885017
1.1874837
1.1865181
1.1856032
1.1847372
1.1839185
1.1831453
1.1824159
1.1817286
1.1810815
1.1804731
1.1799016
1.1793653
1.1788627
1.178392
1.1779516
1.1775399
1.1771555
1.1767966
1.1764617
1.1761496
1.1758589
1.1755883
1.1753361
1.1750993
1.1748763
1.1746697
1.1744849
1.1743166
1.1741329
1.1738993
1.1736706
1.173643
1.1739141
1.1739382
1.1421418
1.1833582
1.178236
1.1973556
1.2063705
1.216973
1.225455
1.2326182
1.2382707
1.2425245
1.2454938
1.2473375
1.248219
1.2482989
1.2477245
1.2466272
1.2451197
1.2432978
1.2412409
1.2390142
1.2366709
1.2342539
1.2317976
1.2293294
1.2268709
1.2244391
1.2220473
1.2197058
1.2174223
1.2152025
1.2130508
1.2109699
1.2089619
1.2070277
1.2051678
1.203382
1.2016698
1.2000302
1.1984621
1.1969641
1.1955345
1.1941719
1.1928742
1.1916398
1.1904666
1.1893528
1.1882963
1.1872953
1.1863476
1.1854515
1.1846048
1.1838057
1.1830523
1.1823427
1.1816749
1.1810474
1.1804581
1.1799056
1.1793879
1.1789035
1.1784508
1.1780281
1.1776338
1.1772665
1.1769247
1.176607
1.1763122
1.176039
1.1757852
1.1755488
1.175329
1.1751292
1.1749525
1.1747899
1.1746117
1.1743982
1.1742135
1.1742219
1.1744614
1.1744334
1.1723711
1.2119523
1.2120497
1.2297662
1.2386974
1.2476176
1.2541939
1.2589561
1.2620227
1.2636731
1.264148
1.2636823
1.2624783
1.2607085
1.258515
1.2560132
1.2532954
1.2504347
1.2474882
1.2445006
1.2415065
1.2385324
1.2355986
1.2327202
1.2299087
1.2271724
1.2245172
1.2219472
1.2194648
1.2170715
1.2147677
1.2125534
1.2104277
1.2083895
1.2064372
1.2045692
1.2027835
1.201078
1.1994506
1.197899
1.196421
1.1950142
1.1936764
1.1924051
1.1911982
1.1900532
1.1889681
1.1879405
1.1869683
1.1860493
1.1851814
1.1843626
1.1835908
1.1828641
1.1821806
1.1815383
1.1809355
1.1803705
1.1798415
1.1793467
1.1788847
1.1784538
1.1780526
1.1776794
1.1773329
1.1770119
1.1767151
1.176441
1.1761878
1.1759536
1.1757388
1.1755463
1.175377
1.1752198
1.1750506
1.1748625
1.1747198
1.1747483
1.1749441
1.1748913
1.2134078
1.2479879
1.2509497
1.2649484
1.2724925
1.2780746
1.2811893
1.282522
1.2823877
1.2811553
1.279101
1.2764539
1.2733908
1.2700486
1.2665314
1.262918
1.2592672
1.2556229
1.2520175
1.2484746
1.2450112
1.2416393
1.2383672
1.2352002
1.2321415
1.2291927
1.2263541
1.2236252
1.2210047
1.2184908
1.2160814
1.213774
1.2115661
1.2094549
1.2074377
1.2055115
1.2036735
1.2019209
1.2002508
1.1986603
1.1971468
1.1957076
1.1943398
1.193041
1.1918085
1.1906399
1.1895328
1.1884846
1.1874932
1.1865563
1.1856716
1.1848371
1.1840507
1.1833103
1.1826139
1.1819598
1.181346
1.1807709
1.1802326
1.1797296
1.1792602
1.1788228
1.178416
1.1780383
1.1776885
1.1773653
1.1770675
1.1767935
1.1765417
1.1763109
1.1761017
1.1759161
1.1757529
1.1756014
1.175444
1.1752829
1.1751752
1.1752103
1.1753591
1.1752909
1.2626513
1.2888307
1.2930949
1.3007814
1.303668
1.3045428
1.3034835
1.3011724
1.2979654
1.2941717
1.2900056
1.2856251
1.2811424
1.2766374
1.2721662
1.2677677
1.2634687
1.2592869
1.2552339
1.2513166
1.2475384
1.2439006
1.2404027
1.2370431
1.2338192
1.2307281
1.2277662
1.22493
1.2222155
1.219619
1.2171365
1.2147642
1.2124982
1.210335
1.2082707
1.2063019
1.2044252
1.202637
1.2009343
1.1993137
1.1977723
1.1963071
1.1949151
1.1935936
1.1923399
1.1911513
1.1900253
1.1889595
1.1879513
1.1869986
1.186099
1.1852504
1.1844507
1.1836979
1.1829899
1.1823248
1.181701
1.1811165
1.1805697
1.1800589
1.1795825
1.1791391
1.1787271
1.1783453
1.1779923
1.177667
1.1773681
1.1770942
1.1768439
1.1766164
1.1764122
1.1762322
1.1760739
1.1759288
1.1757861
1.1756522
1.1755695
1.1755928
1.1756875
1.1756291
1.3174634
1.3291832
1.3306238
1.3307196
1.3280681
1.3241721
1.3193452
1.3140214
1.3084375
1.3027655
1.2971141
1.2915544
1.2861311
1.2808715
1.2757913
1.2708982
1.2661949
1.2616805
1.2573522
1.2532053
1.2492348
1.2454347
1.241799
1.2383216
1.2349965
1.2318178
1.2287797
1.2258766
1.2231032
1.2204544
1.2179252
1.2155109
1.2132071
1.2110094
1.2089136
1.2069159
1.2050124
1.2031994
1.2014736
1.1998314
1.1982697
1.1967853
1.1953753
1.1940368
1.1927668
1.1915629
1.1904223
1.1893425
1.1883211
1.1873558
1.1864443
1.1855844
1.184774
1.184011
1.1832935
1.1826196
1.1819875
1.1813954
1.1808416
1.1803245
1.1798425
1.1793941
1.1789778
1.1785925
1.1782369
1.1779098
1.1776099
1.1773361
1.1770872
1.1768626
1.1766623
1.1764861
1.1763314
1.1761928
1.1760653
1.1759554
1.1758886
1.1758925
1.1759407
1.1759004
1.3675024
1.3617493
1.3573773
1.3514016
1.3441993
1.3367772
1.3293068
1.3219725
1.3148572
1.3080068
1.3014408
1.2951645
1.2891746
1.2834629
1.2780189
1.2728307
1.2678862
1.2631734
1.2586804
1.2543963
1.2503103
1.2464126
1.242694
1.2391455
1.2357592
1.2325275
1.2294431
1.2264994
1.2236901
1.2210094
1.2184518
1.2160119
1.2136849
1.2114661
1.209351
1.2073355
1.2054156
1.2035873
1.2018472
1.2001916
1.1986174
1.1971211
1.1956998
1.1943505
1.1930704
1.1918567
1.1907069
1.1896182
1.1885884
1.187615
1.1866957
1.1858285
1.185011
1.1842414
1.1835177
1.1828378
1.1822002
1.1816029
1.1810443
1.1805228
1.1800367
1.1795847
1.1791653
1.1787772
1.1784193
1.1780904
1.1777894
1.1775151
1.1772668
1.1770437
1.1768455
1.1766711
1.1765185
1.1763848
1.1762694
1.1761774
1.1761196
1.1761019
1.1761148
1.1760948
1.3945479
1.3832282
1.3724186
1.3629627
1.3536344
1.3446345
1.336038
1.3278622
1.3201077
1.3127583
1.3057944
1.2991934
1.2929331
1.2869917
1.2813489
1.2759858
1.270885
1.2660304
1.2614074
1.2570027
1.252804
1.2488
1.2449805
1.2413359
1.2378575
1.2345371
1.2313674
1.2283412
1.2254522
1.2226942
1.2200617
1.2175491
1.2151516
1.2128643
1.2106828
1.2086029
1.2066205
1.2047317
1.2029329
1.2012206
1.1995914
1.1980421
1.1965696
1.1951709
1.1938432
1.1925837
1.1913898
1.1902589
1.1891885
1.1881763
1.18722
1.1863174
1.1854663
1.1846647
1.1839105
1.183202
1.1825372
1.1819145
1.181332
1.1807881
1.1802812
1.1798099
1.1793727
1.1789683
1.1785956
1.1782533
1.1779405
1.177656
1.177399
1.1771691
1.1769652
1.1767864
1.1766309
1.1764971
1.1763852
1.1762981
1.1762406
1.1762147
1.1762112
1.1762027
1.1643087
1.1704697
1.1832674
1.1945567
1.1986462
1.1984852
1.1994672
1.1998447
1.1999906
1.1999163
1.1996101
1.1991721
1.1986003
1.1979592
1.1972787
1.1965683
1.1958267
1.1950586
1.1942685
1.1934599
1.1926362
1.1918
1.190954
1.1901006
1.1892419
1.1883799
1.1875165
1.1866535
1.1857927
1.1849355
1.1840836
1.1832385
1.1824017
1.1815746
1.1807585
1.1799547
1.1791647
1.1783896
1.1776309
1.1768896
1.1761672
1.1754647
1.1747834
1.1741246
1.1734893
1.1728786
1.1722938
1.1717357
1.1712054
1.1707037
1.1702314
1.1697891
1.1693774
1.1689966
1.1686469
1.1683283
1.1680408
1.167784
1.1675573
1.1673598
1.1671901
1.1670468
1.1669282
1.1668322
1.1667565
1.1666978
1.166654
1.166619
1.1665965
1.1665678
1.1665634
1.1665061
1.1665357
1.1663835
1.166511
1.1661197
1.1664862
1.1656846
1.1664237
1.1650713
1.1676676
1.1758816
1.191976
1.1970644
1.1971492
1.1966739
1.1959509
1.1955832
1.195159
1.1946903
1.1941894
1.1937234
1.193256
1.1927861
1.1922914
1.1917729
1.1912299
1.1906639
1.1900754
1.1894653
1.1888347
1.1881852
1.1875185
1.1868363
1.1861407
1.1854335
1.1847167
1.1839923
1.1832624
1.1825288
1.1817935
1.1810584
1.1803252
1.1795959
1.1788722
1.1781558
1.1774484
1.1767518
1.1760676
1.1753973
1.1747426
1.174105
1.1734859
1.1728868
1.1723092
1.1717543
1.1712234
1.1707178
1.1702386
1.1697867
1.169363
1.1689682
1.1686028
1.1682673
1.167962
1.1676868
1.1674415
1.1672258
1.1670391
1.1668803
1.1667481
1.1666408
1.1665567
1.1664937
1.1664494
1.1664204
1.1664044
1.1663959
1.1663974
1.1663923
1.1664071
1.1663728
1.1664142
1.1662849
1.1664152
1.166054
1.1664178
1.1656384
1.1663911
1.1650213
1.1584882
1.174166
1.1861852
1.1908593
1.1907008
1.1901843
1.1895774
1.189375
1.18907
1.1888731
1.1886106
1.1883601
1.1880599
1.1877444
1.1873984
1.1870313
1.1866395
1.1862248
1.1857873
1.1853279
1.1848479
1.1843481
1.1838299
1.1832946
1.1827435
1.1821781
1.1816
1.1810106
1.1804117
1.1798049
1.179192
1.1785747
1.1779548
1.1773343
1.1767148
1.1760984
1.1754867
1.1748818
1.1742854
1.1736993
1.1731254
1.1725652
1.1720207
1.1714933
1.1709848
1.1704966
1.1700303
1.1695872
1.1691685
1.1687753
1.1684087
1.1680693
1.1677579
1.1674749
1.1672204
1.1669947
1.1667974
1.1666282
1.1664863
1.1663708
1.1662801
1.1662125
1.1661664
1.1661395
1.1661292
1.1661324
1.1661464
1.1661661
1.1661934
1.1662132
1.1662487
1.1662377
1.1662926
1.1661854
1.1663205
1.1659882
1.1663488
1.1655924
1.1663583
1.1649714
1.1574477
1.1771207
1.1847024
1.1880473
1.1868867
1.1865034
1.1857747
1.1855226
1.185074
1.1847736
1.1843962
1.1840858
1.1837498
1.1834337
1.1831045
1.1827735
1.1824326
1.1820833
1.1817234
1.181352
1.1809684
1.1805721
1.1801628
1.1797405
1.1793053
1.1788577
1.1783983
1.1779278
1.1774472
1.1769575
1.1764601
1.1759562
1.1754474
1.1749352
1.1744212
1.1739073
1.1733951
1.1728864
1.1723831
1.171887
1.1713999
1.1709237
1.1704602
1.1700112
1.1695783
1.1691634
1.168768
1.1683935
1.1680413
1.1677125
1.1674083
1.1671295
1.1668768
1.1666506
1.1664513
1.1662788
1.166133
1.1660134
1.1659192
1.1658495
1.1658026
1.1657768
1.1657704
1.165781
1.1658061
1.1658424
1.1658873
1.1659359
1.1659894
1.1660344
1.1660912
1.1661031
1.1661727
1.1660861
1.1662285
1.1659215
1.166283
1.1655465
1.1663255
1.164925
1.1551521
1.1751543
1.1806042
1.1832662
1.1816194
1.1814884
1.1807246
1.1805984
1.1801619
1.17996
1.1796449
1.1794212
1.1791541
1.1789157
1.1786617
1.1784115
1.1781539
1.1778916
1.1776218
1.1773436
1.1770564
1.1767592
1.1764517
1.1761335
1.1758045
1.1754648
1.1751144
1.1747538
1.1743835
1.1740042
1.1736166
1.1732219
1.1728211
1.1724155
1.1720065
1.1715955
1.1711841
1.170774
1.1703668
1.1699644
1.1695686
1.169181
1.1688037
1.1684383
1.1680868
1.1677507
1.1674318
1.1671316
1.1668515
1.1665926
1.1663561
1.1661429
1.1659538
1.1657891
1.1656492
1.1655341
1.1654436
1.1653771
1.1653339
1.1653129
1.1653124
1.1653308
1.1653661
1.1654161
1.1654781
1.165549
1.1656259
1.1657043
1.1657849
1.1658556
1.1659343
1.1659692
1.1660541
1.1659877
1.1661384
1.1658556
1.1662187
1.1655015
1.166293
1.1648813
1.149878
1.1721118
1.1758939
1.1783207
1.1763812
1.1766043
1.1758118
1.1758356
1.1754194
1.1753095
1.1750372
1.1748868
1.1746794
1.1745137
1.174329
1.1741527
1.1739697
1.1737851
1.1735953
1.1733996
1.1731975
1.1729881
1.1727708
1.1725453
1.1723112
1.1720682
1.1718164
1.1715557
1.1712864
1.1710089
1.1707236
1.1704313
1.1701329
1.1698291
1.1695213
1.1692105
1.1688982
1.1685857
1.1682747
1.1679667
1.1676634
1.1673666
1.167078
1.1667993
1.1665324
1.1662788
1.1660403
1.1658183
1.1656143
1.1654293
1.1652646
1.165121
1.1649992
1.1648997
1.1648228
1.1647684
1.1647362
1.1647257
1.1647361
1.1647661
1.1648142
1.1648785
1.1649572
1.165048
1.1651481
1.1652545
1.1653642
1.165473
1.1655813
1.1656779
1.1657789
1.1658368
1.1659374
1.165891
1.1660504
1.1657908
1.1661566
1.1654578
1.1662619
1.1648403
1.1445507
1.1694753
1.171012
1.1734062
1.1712692
1.1717813
1.1709445
1.1711131
1.1707201
1.170715
1.1704991
1.1704336
1.1702928
1.1702027
1.170087
1.1699828
1.1698711
1.1697597
1.1696447
1.1695257
1.1694021
1.1692732
1.1691384
1.1689972
1.1688493
1.1686942
1.1685318
1.1683621
1.1681852
1.1680012
1.1678104
1.1676134
1.1674108
1.1672033
1.1669917
1.1667771
1.1665606
1.1663435
1.1661269
1.1659125
1.1657017
1.1654961
1.1652972
1.1651069
1.1649266
1.1647581
1.1646027
1.1644619
1.1643371
1.1642293
1.1641396
1.1640689
1.1640178
1.1639866
1.1639757
1.1639849
1.1640138
1.1640618