/*--------------------------------*- C++ -*----------------------------------*\
| =========                 |                                                 |
| \\      /  F ield         | OpenFOAM: The Open Source CFD Toolbox           |
|  \\    /   O peration     | Version:  2512                                  |
|   \\  /    A nd           | Website:  www.openfoam.com                      |
|    \\/     M anipulation  |                                                 |
\*---------------------------------------------------------------------------*/
FoamFile
{
    version     2.0;
    format      ascii;
    arch        "LSB;label=32;scalar=64";
    class       volScalarField;
    location    "0.142";
    object      T;
}
// * * * * * * * * * * * * * * * * * * * * * * * * * * * * * * * * * * * * * //

dimensions      [0 0 0 1 0 0 0];

internalField   nonuniform List<scalar> 
16000
(
292.67312
284.87713
289.27426
286.98327
288.64978
287.89542
288.562
288.36158
288.66445
288.67551
288.84044
288.92728
289.05184
289.16228
289.28086
289.39963
289.52172
289.64645
289.77428
289.90526
290.03954
290.1772
290.31829
290.46284
290.61084
290.76224
290.917
291.07499
291.2361
291.40016
291.56697
291.73629
291.90788
292.08143
292.25663
292.43313
292.61056
292.78853
292.96664
293.14446
293.32158
293.49756
293.67199
293.84444
294.01452
294.18185
294.34607
294.50684
294.66387
294.81691
294.96571
295.11009
295.24992
295.38508
295.5155
295.64118
295.7621
295.87834
295.98996
296.0971
296.19994
296.2987
296.39362
296.48506
296.57339
296.65904
296.74244
296.82398
296.90404
296.98308
297.06181
297.14109
297.22163
297.30362
297.38694
297.47179
297.56606
297.63937
297.78664
297.82034
292.35995
284.45905
289.0101
286.5992
288.35874
287.54029
288.26497
288.03879
288.36469
288.37761
288.54942
288.64567
288.77598
288.89551
289.02164
289.14909
289.27976
289.41346
289.55045
289.69085
289.83478
289.98228
290.13339
290.28812
290.44642
290.60823
290.77344
290.94191
291.11347
291.2879
291.46496
291.64437
291.82583
292.00897
292.19345
292.37886
292.56478
292.75078
292.93642
293.12125
293.3048
293.48664
293.66632
293.84344
294.01757
294.18837
294.35548
294.5186
294.67747
294.83185
294.98156
295.12646
295.26645
295.40147
295.53151
295.65658
295.77674
295.89209
296.00274
296.10885
296.21063
296.30832
296.40219
296.49257
296.57988
296.66456
296.74704
296.82775
296.90706
296.98545
297.06357
297.14233
297.22249
297.30431
297.38771
297.47362
297.56311
297.65403
297.76932
297.8432
292.03127
284.07822
288.71917
286.27495
288.06203
287.24673
287.97244
287.76469
288.08772
288.11767
288.29167
288.40021
288.53752
288.66707
288.80242
288.93978
289.08056
289.22468
289.37237
289.52372
289.67881
289.83768
290.00033
290.16672
290.33676
290.51036
290.68734
290.86752
291.05067
291.23652
291.42477
291.61506
291.80703
292.00028
292.19436
292.38882
292.5832
292.777
292.96974
293.16093
293.35009
293.53675
293.72048
293.90086
294.0775
294.25006
294.41823
294.58176
294.74042
294.89404
295.0425
295.18572
295.32366
295.45633
295.58378
295.70608
295.82335
295.93574
296.04341
296.14655
296.24541
296.34026
296.43139
296.51915
296.60395
296.68625
296.76651
296.84516
296.92258
296.99922
297.07573
297.15297
297.23177
297.31245
297.3949
297.47969
297.56811
297.66202
297.76791
297.85341
291.73762
283.72905
288.47052
285.987
287.81307
286.98151
287.71985
287.52257
287.8487
287.89372
288.07186
288.19313
288.33851
288.47899
288.62454
288.77278
288.92462
289.0801
289.23937
289.40251
289.56957
289.74055
289.91541
290.09407
290.2764
290.46224
290.65138
290.84356
291.0385
291.23585
291.43524
291.63625
291.83843
292.04132
292.2444
292.44717
292.64909
292.84963
293.04826
293.24447
293.43777
293.62769
293.8138
293.99569
294.17302
294.34549
294.51285
294.67489
294.83147
294.98248
295.12787
295.26765
295.40184
295.53052
295.65382
295.77186
295.88483
295.99293
296.09636
296.19537
296.29021
296.3812
296.46863
296.55287
296.63434
296.7135
296.79081
296.86672
296.94163
297.01597
297.09033
297.16559
297.2426
297.32177
297.40296
297.48631
297.57377
297.66923
297.76681
297.86532
291.46754
283.41465
288.23582
285.72732
287.60994
286.7589
287.5009
287.32301
287.64809
287.71244
287.8948
288.03047
288.18544
288.33805
288.49521
288.65558
288.81972
288.98773
289.15974
289.3358
289.51593
289.70008
289.88817
290.08008
290.27561
290.47454
290.67659
290.88141
291.08865
291.29787
291.50861
291.72036
291.93261
292.14478
292.35631
292.56661
292.7751
292.9812
293.18437
293.38407
293.57981
293.77113
293.95764
294.13898
294.31486
294.48504
294.64935
294.80767
294.95993
295.10613
295.2463
295.38052
295.50892
295.63166
295.74892
295.86091
295.96787
296.07005
296.16772
296.26114
296.35061
296.43646
296.519
296.5986
296.6757
296.75073
296.8242
296.89652
296.96812
297.0394
297.11092
297.18352
297.25809
297.33513
297.41436
297.49572
297.58197
297.67629
297.77012
297.87311
291.22735
283.14508
288.03749
285.51236
287.40222
286.58352
287.33142
287.17084
287.49569
287.57959
287.76719
287.91797
288.0838
288.24931
288.41909
288.59248
288.7699
288.95145
289.13721
289.32723
289.52146
289.7198
289.92212
290.1282
290.33778
290.55053
290.76608
290.984
291.20379
291.42495
291.6469
291.86903
292.09073
292.31136
292.53026
292.74679
292.96034
293.17029
293.37609
293.57721
293.77318
293.9636
294.14812
294.32646
294.49842
294.66385
294.82268
294.97489
295.12052
295.25966
295.39246
295.51909
295.63977
295.75474
295.86425
295.96858
296.06804
296.16291
296.25351
296.34014
296.42312
296.50278
296.57947
296.65354
296.72542
296.79555
296.86442
296.93248
297.00012
297.06773
297.13585
297.20525
297.27687
297.35127
297.42806
297.50709
297.59164
297.68403
297.77424
297.88091
291.01909
282.92015
287.87263
285.34514
287.24865
286.45998
287.1985
287.0719
287.38799
287.49854
287.69239
287.85859
288.03643
288.21568
288.39928
288.58697
288.77904
288.97556
289.17658
289.38203
289.59181
289.80574
290.02357
290.24499
290.46963
290.69703
290.92672
291.15812
291.39064
291.62362
291.85639
292.08823
292.31843
292.54626
292.77103
292.99203
293.20862
293.4202
293.62622
293.82621
294.01975
294.20652
294.38627
294.55882
294.72409
294.88204
295.03274
295.17628
295.31284
295.44261
295.56585
295.68284
295.79387
295.89927
295.99938
296.09452
296.18504
296.27129
296.3536
296.43231
296.50775
296.58026
296.65019
296.71789
296.78378
296.84829
296.91189
296.97502
297.03809
297.10147
297.16563
297.2313
297.29944
297.37068
297.44452
297.52086
297.60318
297.69274
297.77965
297.88791
290.84276
282.74005
287.74152
285.21444
287.12318
286.36128
287.10585
286.99385
287.33712
287.4676
287.66934
287.85203
288.04406
288.23895
288.4385
288.6426
288.85143
289.06498
289.28321
289.50597
289.73305
289.96414
290.19888
290.43684
290.67748
290.92024
291.16445
291.40944
291.65444
291.89867
292.14135
292.38164
292.61875
292.85189
293.0803
293.3033
293.52025
293.73057
293.93378
294.1295
294.31742
294.49733
294.66913
294.83277
294.98832
295.1359
295.2757
295.40798
295.53303
295.65116
295.76275
295.86817
295.96779
296.06202
296.15124
296.23584
296.31621
296.39272
296.46573
296.53559
296.60264
296.66722
296.72967
296.79034
296.84961
296.9079
296.96567
297.02336
297.08136
297.14002
297.19975
297.26124
297.32547
297.39307
297.46354
297.53688
297.61645
297.7024
297.78587
297.89506
290.6907
282.60102
287.6456
285.1221
287.05704
286.35553
287.0826
287.01379
287.32755
287.48626
287.70016
287.90207
288.11159
288.3249
288.54312
288.76621
288.99426
289.22718
289.46482
289.7069
289.9531
290.20296
290.45596
290.71149
290.96887
291.22734
291.48608
291.74423
292.0009
292.25516
292.5061
292.75281
292.99443
293.23014
293.45919
293.68092
293.89475
294.1002
294.29693
294.48466
294.66327
294.83271
294.99305
295.14444
295.2871
295.42134
295.54749
295.66596
295.77717
295.88156
295.97958
296.07169
296.15836
296.24002
296.31712
296.39008
296.45931
296.52518
296.58809
296.64836
296.70636
296.7624
296.81681
296.86991
296.92208
296.97371
297.02522
297.07704
297.12955
297.18309
297.23802
297.29496
297.35487
297.41839
297.48512
297.55521
297.63156
297.71311
297.79298
297.90239
290.56233
282.50485
287.58968
285.09075
287.04063
286.34305
287.068
287.05006
287.3787
287.56564
287.79512
288.01821
288.24805
288.48238
288.72194
288.96665
289.21646
289.47115
289.73043
289.99386
290.26091
290.53097
290.80329
291.07707
291.35142
291.62537
291.89791
292.16802
292.43464
292.69674
292.9533
293.20336
293.44606
293.68058
293.90625
294.12251
294.3289
294.52514
294.71104
294.88656
295.05177
295.20685
295.35207
295.48779
295.61442
295.73244
295.84235
295.94469
296.03998
296.12878
296.21162
296.28903
296.3615
296.42952
296.49356
296.55406
296.61142
296.66603
296.71827
296.76848
296.81697
296.86407
296.91007
296.95528
297.00003
297.04468
297.08963
297.13529
297.18202
297.23014
297.27998
297.33209
297.38735
297.44641
297.5091
297.57578
297.64845
297.72491
297.80106
297.91017
290.46068
282.45906
287.57714
285.15104
287.07
286.4533
287.12954
287.18698
287.49492
287.71245
287.96166
288.20867
288.46212
288.7206
288.98456
289.25379
289.5281
289.80708
290.09023
290.37689
290.6663
290.9576
291.24979
291.54182
291.83256
292.12082
292.40541
292.68512
292.95876
293.22523
293.48347
293.73254
293.97161
294.20001
294.41722
294.62285
294.81671
294.99873
295.16899
295.32772
295.47526
295.61201
295.7385
295.85529
295.96299
296.06223
296.15364
296.23789
296.31559
296.38737
296.45381
296.51547
296.57289
296.62656
296.67695
296.72448
296.76957
296.81258
296.85387
296.89375
296.93254
296.97051
297.00793
297.04508
297.08224
297.11976
297.158
297.19732
297.2381
297.28062
297.32518
297.37226
297.42263
297.47691
297.53533
297.59846
297.66704
297.73776
297.8102
297.91863
290.39213
282.47333
287.61337
285.24411
287.12404
286.59057
287.2698
287.36132
287.68622
287.93573
288.20936
288.48362
288.76432
289.05041
289.34208
289.63895
289.94058
290.24631
290.55537
290.8668
291.17953
291.4924
291.80411
292.11332
292.41864
292.71868
293.01204
293.29741
293.57353
293.83928
294.09368
294.3359
294.5653
294.78144
294.98408
295.17313
295.34873
295.51112
295.66073
295.79807
295.92377
296.0385
296.143
296.23802
296.32435
296.40273
296.47392
296.53864
296.59759
296.65141
296.70071
296.74607
296.788
296.82699
296.8635
296.89792
296.93064
296.962
296.99232
297.02189
297.05098
297.07984
297.1087
297.1378
297.1674
297.19779
297.22929
297.26225
297.29701
297.33385
297.37303
297.41499
297.46031
297.50959
297.56355
297.62305
297.68718
297.75153
297.8203
297.92795
290.3628
282.55803
287.71062
285.42749
287.25004
286.81648
287.47092
287.62513
287.96181
288.24606
288.54897
288.85446
289.16651
289.48409
289.80709
290.13485
290.46658
290.80128
291.13779
291.47479
291.81083
292.14436
292.47379
292.79746
293.11374
293.42106
293.71792
294.00296
294.275
294.53305
294.77633
295.00432
295.21672
295.41346
295.5947
295.76077
295.91218
296.04959
296.17375
296.28548
296.38568
296.47527
296.55516
296.62626
296.68946
296.7456
296.7955
296.83991
296.87952
296.91501
296.94695
296.9759
297.00236
297.02676
297.04954
297.07104
297.09161
297.11155
297.13113
297.15062
297.17024
297.1902
297.21071
297.23195
297.25415
297.27755
297.30243
297.32911
297.35791
297.38909
297.42293
297.45975
297.49995
297.54409
297.59347
297.64924
297.70866
297.76631
297.8315
297.9378
290.37023
282.71818
287.86748
285.66877
287.4667
287.11723
287.76045
287.97226
288.33254
288.6552
288.99309
289.33471
289.68279
290.03615
290.39425
290.75601
291.12019
291.48532
291.84975
292.21171
292.56933
292.92066
293.26377
293.59676
293.91783
294.22534
294.51784
294.79415
295.05332
295.29473
295.51805
295.7232
295.91042
296.08013
296.23299
296.36981
296.49153
296.59916
296.6938
296.77653
296.84847
296.9107
296.96427
297.01016
297.04933
297.08265
297.11092
297.13489
297.15524
297.17258
297.18746
297.20038
297.21179
297.22208
297.2316
297.24068
297.24959
297.2586
297.26792
297.27777
297.28834
297.29981
297.31232
297.32604
297.34113
297.35782
297.37632
297.39692
297.41991
297.44556
297.47415
297.50592
297.54103
297.58004
297.62476
297.67659
297.73121
297.7822
297.84392
297.94784
290.42109
282.97163
288.08731
286.00316
287.76784
287.51191
288.14618
288.42177
288.8129
289.17896
289.55798
289.94123
290.33036
290.72381
291.12043
291.51855
291.91634
292.31174
292.70256
293.0865
293.46123
293.82446
294.174
294.50785
294.82425
295.12174
295.3992
295.6559
295.89144
296.10581
296.29932
296.47256
296.62636
296.76176
296.87992
296.98211
297.06964
297.14387
297.20612
297.25766
297.29975
297.33355
297.36014
297.38054
297.39567
297.40639
297.41345
297.41753
297.41926
297.41918
297.41777
297.41546
297.41262
297.40959
297.40665
297.40406
297.40205
297.40081
297.40053
297.40136
297.40347
297.40697
297.41198
297.41863
297.42705
297.4374
297.44986
297.46469
297.48212
297.50245
297.52596
297.5528
297.58298
297.61701
297.65702
297.70456
297.75436
297.79939
297.8577
297.95754
290.51966
283.33907
288.3555
286.4341
288.14622
288.01044
288.64506
288.98805
289.42056
289.83661
290.26371
290.69453
291.1296
291.56674
292.00401
292.43904
292.86925
293.29191
293.70421
294.10334
294.48663
294.85161
295.19611
295.51835
295.81699
296.09116
296.34045
296.5649
296.76498
296.94148
297.09551
297.22837
297.34156
297.43665
297.51525
297.57901
297.6295
297.66828
297.69679
297.71639
297.72836
297.73384
297.7339
297.72949
297.72146
297.71057
297.69749
297.68283
297.66711
297.65077
297.63423
297.61781
297.60183
297.58653
297.57214
297.55884
297.54681
297.53619
297.5271
297.51968
297.51401
297.51019
297.50831
297.50845
297.51069
297.51517
297.52202
297.53144
297.54366
297.55896
297.57761
297.59971
297.62516
297.65451
297.68988
297.73259
297.77732
297.81761
297.87251
297.96704
290.66963
283.83104
288.6904
286.97638
288.63597
288.63123
289.27784
289.69507
290.17982
290.65338
291.13534
291.61892
292.10339
292.58575
293.06309
293.53213
293.98946
294.43161
294.85528
295.25737
295.6352
295.98659
296.30992
296.60417
296.86894
297.10441
297.31124
297.49056
297.64381
297.77271
297.87914
297.96507
298.03251
298.08344
298.11978
298.14336
298.15588
298.15894
298.15399
298.14236
298.12522
298.10366
298.07861
298.05092
298.02131
297.99044
297.95885
297.92704
297.89541
297.86433
297.83409
297.80495
297.77713
297.7508
297.72612
297.70321
297.68219
297.66314
297.64616
297.6313
297.61864
297.60822
297.60011
297.59434
297.59098
297.59011
297.59183
297.59628
297.60368
297.6143
297.62836
297.64591
297.66691
297.69199
297.72298
297.76036
297.79926
297.83579
297.88841
297.97585
290.87566
284.40647
289.1224
287.65325
289.25883
289.40189
290.07501
290.57328
291.12083
291.65886
292.20097
292.74035
293.2747
293.79986
294.31173
294.806
295.27848
295.7253
296.14308
296.52912
296.88147
297.19896
297.48126
297.72873
297.94241
298.12383
298.27496
298.39802
298.49544
298.56968
298.62325
298.65855
298.6779
298.68347
298.67726
298.66111
298.63669
298.6055
298.56887
298.52797
298.48386
298.43743
298.38948
298.34069
298.29166
298.24288
298.19477
298.14772
298.102
298.05788
298.01556
297.97521
297.93697
297.90095
297.86723
297.83588
297.80695
297.7805
297.75655
297.73513
297.71629
297.70003
297.68638
297.67536
297.667
297.66133
297.65843
297.6584
297.66142
297.66773
297.67751
297.69077
297.70759
297.72878
297.75575
297.78776
297.82023
297.85305
297.90461
297.98457
291.15468
285.13414
289.73209
288.50255
290.05243
290.35649
291.07253
291.65807
292.27741
292.88526
293.48994
294.08388
294.66275
295.22098
295.75328
296.25471
296.72098
297.1487
297.53553
297.88017
298.18242
298.443
298.66345
298.84595
298.99313
299.10796
299.19353
299.25298
299.28941
299.30576
299.30481
299.28912
299.26105
299.2227
299.17597
299.12255
299.0639
299.00133
298.93596
298.86876
298.80058
298.73212
298.66399
298.59672
298.53073
298.46637
298.40395
298.34371
298.28583
298.23048
298.17776
298.12777
298.08057
298.03621
297.99471
297.95609
297.92035
297.88749
297.85752
297.83043
297.80621
297.78486
297.76638
297.75075
297.73798
297.72808
297.72109
297.71707
297.71617
297.71859
297.72444
297.73372
297.74665
297.76423
297.78747
297.81458
297.84092
297.8693
297.9199
297.99459
291.53996
286.03987
290.4983
289.56249
291.05754
291.53196
292.31051
292.98995
293.68764
294.36656
295.02952
295.66759
296.27448
296.84367
297.36972
297.84834
298.2767
298.65346
298.97865
299.25357
299.48054
299.66265
299.8035
299.90701
299.9772
300.01806
300.03341
300.02685
300.00173
299.96106
299.90757
299.84366
299.77149
299.6929
299.60953
299.52276
299.43381
299.3437
299.2533
299.16334
299.07445
298.98712
298.9018
298.81881
298.73845
298.66093
298.58643
298.51507
298.44695
298.38214
298.32068
298.26257
298.20783
298.15644
298.10837
298.06361
298.0221
297.98382
297.94873
297.9168
297.88798
297.86227
297.83961
297.82
297.80341
297.78983
297.77925
297.77174
297.76739
297.76634
297.76864
297.77431
297.78371
297.79789
297.81743
297.83989
297.86111
297.88585
297.93452
298.00428
292.07358
287.18954
291.43338
290.87038
292.32536
292.97841
293.83972
294.61717
295.39145
296.13087
296.83293
297.4879
298.0891
298.63103
299.11034
299.52567
299.8776
300.16832
300.40134
300.58106
300.71244
300.80071
300.85111
300.86869
300.85823
300.82411
300.7703
300.70037
300.61743
300.52423
300.42314
300.3162
300.20517
300.09154
299.97656
299.86128
299.74661
299.63327
299.52187
299.4129
299.30678
299.20382
299.10426
299.00831
298.91611
298.82776
298.74331
298.66282
298.58628
298.51368
298.44501
298.38021
298.31924
298.26203
298.20853
298.15866
298.11235
298.06954
298.03017
297.99416
297.96148
297.93206
297.90586
297.88284
297.86297
297.84621
297.83254
297.822
297.81464
297.81054
297.80968
297.81214
297.81841
297.82946
297.84532
297.86327
297.88017
297.90244
297.94881
298.01167
292.79387
288.64221
292.64849
292.49438
293.932
294.76523
295.71822
296.58339
297.41225
298.17837
298.87661
299.49918
300.04242
300.50513
300.88883
301.1972
301.43553
301.61015
301.72796
301.79598
301.82106
301.80964
301.76766
301.70044
301.61272
301.50861
301.3917
301.26504
301.13124
300.9925
300.85068
300.70733
300.56373
300.42096
300.27989
300.14123
300.00556
299.87333
299.74493
299.62062
299.50061
299.38506
299.27408
299.16772
299.06601
298.96895
298.87652
298.78868
298.70536
298.62648
298.55199
298.48177
298.41574
298.3538
298.29586
298.24181
298.19157
298.14503
298.10211
298.06272
298.02681
297.99428
297.9651
297.9392
297.91653
297.89705
297.88073
297.86759
297.85763
297.85086
297.84724
297.84689
297.8504
297.85853
297.87082
297.88453
297.8978
297.91811
297.96137
298.01618
293.70642
290.51221
294.22655
294.52412
295.9621
296.95969
297.98298
298.89468
299.72367
300.45213
301.07832
301.601
302.02366
302.35227
302.59494
302.7609
302.8598
302.90117
302.89401
302.84657
302.76621
302.65938
302.53165
302.3878
302.23183
302.06711
301.89647
301.72222
301.54628
301.37023
301.19534
301.02266
300.853
300.68705
300.52531
300.36819
300.216
300.06897
299.92723
299.79091
299.66005
299.53466
299.41474
299.30023
299.19107
299.08718
298.98847
298.89483
298.80615
298.72231
298.64318
298.56864
298.49857
298.43284
298.37132
298.31389
298.26044
298.21086
298.16503
298.12287
298.08428
298.04917
298.01749
297.98916
297.96412
297.94232
297.92373
297.90835
297.89614
297.88705
297.88104
297.87828
297.87934
297.88472
297.89362
297.90349
297.91368
297.93201
297.9714
298.0184
294.9311
292.91937
296.27942
297.0297
298.44964
299.58434
300.60849
301.48139
302.22097
302.82288
303.29567
303.64872
303.89479
304.04747
304.12053
304.12703
304.07893
303.98678
303.85973
303.70556
303.53079
303.34082
303.14011
302.93229
302.72032
302.50659
302.29302
302.08115
301.87219
301.6671
301.46664
301.27138
301.08176
300.89809
300.72061
300.54945
300.3847
300.2264
300.07455
299.92909
299.78996
299.65707
299.53031
299.40956
299.29467
299.18552
299.08196
298.98382
298.89097
298.80324
298.72047
298.64252
298.56924
298.50048
298.4361
298.37595
298.31991
298.26785
298.21965
298.17521
298.13441
298.09716
298.06338
298.033
298.00595
297.98217
297.96163
297.94431
297.93014
297.91904
297.91098
297.90615
297.90503
297.90784
297.91352
297.92
297.92775
297.94443
297.97997
298.01947
296.50188
295.96563
298.8307
300.02815
301.50168
302.55742
303.46611
304.17766
304.72037
305.10544
305.35463
305.48812
305.5262
305.48711
305.38689
305.23917
305.0553
304.84458
304.61452
304.37119
304.11937
303.8629
303.60477
303.34734
303.09245
302.84152
302.59564
302.35562
302.1221
301.89552
301.67618
301.4643
301.25999
301.06331
300.87426
300.69277
300.51879
300.35219
300.19285
300.04062
299.89535
299.75686
299.62498
299.49952
299.38031
299.26716
299.15988
299.05829
298.96221
298.87145
298.78584
298.7052
298.62938
298.5582
298.49152
298.42917
298.37103
298.31695
298.2668
298.22046
298.17783
298.13879
298.10326
298.07115
298.04238
298.01689
297.99466
297.97562
297.95972
297.94686
297.93703
297.93043
297.92739
297.92783
297.93066
297.93439
297.94025
297.95505
297.98545
298.01672
298.46877
299.6609
302.29212
303.54875
304.77672
305.65498
306.31463
306.74737
307.00234
307.10907
307.09977
307.00053
306.83343
306.61617
306.3628
306.08432
305.78926
305.48416
305.17407
304.8628
304.55325
304.24761
303.9475
303.65413
303.36837
303.09083
302.82195
302.56198
302.31107
302.06929
301.83662
301.61299
301.3983
301.19239
300.99511
300.80626
300.62566
300.45309
300.28833
300.13117
299.98139
299.83877
299.70308
299.5741
299.45162
299.33542
299.2253
299.12103
299.02242
298.92928
298.84141
298.75863
298.68075
298.60761
298.53904
298.47488
298.41499
298.35921
298.30742
298.25949
298.2153
298.17474
298.1377
298.1041
298.07384
298.04687
298.02313
298.00257
297.98511
297.97068
297.95928
297.95108
297.94625
297.94456
297.94502
297.94669
297.95109
297.96369
297.98868
298.01305
301.15429
304.06202
306.02731
307.18198
308.08823
308.5993
308.87304
308.94423
308.87138
308.69252
308.43921
308.13459
307.79604
307.43634
307.06486
306.68843
306.31202
305.9392
305.57253
305.21384
304.86439
304.52502
304.19629
303.87851
303.57185
303.27634
302.99191
302.71844
302.45576
302.20365
301.96188
301.73019
301.50832
301.29599
301.09294
300.89888
300.71354
300.53665
300.36794
300.20713
300.05398
299.90822
299.76961
299.63789
299.51283
299.3942
299.28177
299.17531
299.07462
298.97949
298.88971
298.80509
298.72545
298.65061
298.58039
298.51463
298.45319
298.39591
298.34265
298.29329
298.2477
298.20576
298.16737
298.13243
298.10084
298.07253
298.04745
298.02551
298.00665
297.9908
297.97798
297.96828
297.96175
297.95811
297.95664
297.9569
297.96028
297.9705
297.98958
298.00778
304.89225
308.72619
309.95591
310.63647
310.98376
311.01532
310.86279
310.5807
310.2179
309.80481
309.36307
308.90714
308.44692
307.98908
307.5381
307.09693
306.66753
306.25107
305.84828
305.45949
305.08481
304.72417
304.3774
304.04424
303.72436
303.41743
303.12308
302.84093
302.5706
302.31172
302.0639
301.82678
301.60001
301.38323
301.1761
300.97829
300.78948
300.60936
300.43762
300.27398
300.11815
299.96985
299.82883
299.69481
299.56755
299.44682
299.33236
299.22395
299.12138
299.02443
298.93289
298.84657
298.76527
298.68882
298.61703
298.54975
298.48682
298.42809
298.37342
298.32268
298.27574
298.23249
298.19282
298.15662
298.12379
298.09425
298.06792
298.04473
298.0246
298.00748
297.99338
297.98231
297.97423
297.96889
297.96587
297.96507
297.96748
297.97516
297.98881
298.00249
310.46367
312.8838
313.31847
313.27886
313.05504
312.64377
312.14686
311.60246
311.03874
310.47165
309.91099
309.36262
308.82996
308.31489
307.81834
307.34062
306.88165
306.44113
306.01859
305.61349
305.22525
304.85324
304.49687
304.15554
303.82867
303.51568
303.21605
302.92925
302.6548
302.39223
302.14107
301.90091
301.67134
301.45196
301.2424
301.0423
300.85132
300.66913
300.49541
300.32986
300.17218
300.02208
299.87931
299.74359
299.61467
299.4923
299.37624
299.26627
299.16216
299.06369
298.97067
298.88288
298.80015
298.72227
298.64909
298.58043
298.51615
298.45608
298.4001
298.34807
298.29987
298.25539
298.21451
298.17712
298.14313
298.11244
298.08497
298.06062
298.03933
298.02104
298.00574
297.9934
297.98394
297.97717
297.97293
297.97129
297.97285
297.97833
297.98753
297.99808
314.07107
315.0628
315.21393
314.70944
314.08704
313.41151
312.72353
312.04358
311.38127
310.74183
310.12734
309.53855
308.97524
308.43678
307.92228
307.43072
306.96107
306.51227
306.08332
305.67326
305.28118
304.90622
304.54757
304.20448
303.87626
303.56224
303.2618
302.97438
302.69943
302.43643
302.18491
301.94442
301.71453
301.49482
301.28492
301.08446
300.89308
300.71046
300.53626
300.37019
300.21195
300.06125
299.91783
299.78141
299.65176
299.52861
299.41174
299.30092
299.19592
299.09654
299.00257
298.9138
298.83005
298.75115
298.67691
298.60717
298.54178
298.48059
298.42347
298.3703
298.32095
298.27531
298.23327
298.19473
298.1596
298.12778
298.09917
298.07369
298.05127
298.03184
298.01538
298.00185
297.99118
297.98324
297.97796
297.97542
297.97588
297.97966
297.98665
297.99563
310.65548
308.91401
305.65038
302.83992
301.85082
301.86721
301.52615
301.31051
301.13573
300.98474
300.85435
300.72761
300.61452
300.51084
300.41004
300.30968
300.21079
300.11314
300.01639
299.92041
299.82507
299.73031
299.63611
299.54246
299.44939
299.35693
299.26514
299.17406
299.08377
298.99434
298.90583
298.81835
298.73196
298.64677
298.56287
298.48035
298.39931
298.31986
298.24211
298.16616
298.09213
298.02014
297.9503
297.88273
297.81757
297.75492
297.69493
297.63771
297.58341
297.53213
297.484
297.43914
297.39766
297.35966
297.32525
297.29452
297.26753
297.24434
297.22499
297.20951
297.19795
297.19037
297.18675
297.18713
297.1916
297.20025
297.21327
297.23058
297.25269
297.27856
297.31076
297.34473
297.39129
297.43218
297.5003
297.53663
297.64087
297.66384
297.81062
297.83059
306.83916
304.67738
300.62999
299.41196
299.39835
299.51356
299.67325
299.7253
299.76387
299.79743
299.82024
299.81982
299.80357
299.77436
299.73783
299.69527
299.64731
299.59446
299.53737
299.47664
299.41276
299.34617
299.27727
299.20642
299.13393
299.0601
298.98522
298.90954
298.83329
298.75671
298.68002
298.60341
298.52709
298.45123
298.37603
298.30164
298.22824
298.156
298.08508
298.01562
297.9478
297.88176
297.81765
297.75563
297.69584
297.63843
297.58355
297.53134
297.48194
297.43549
297.39211
297.35192
297.31505
297.28159
297.25166
297.22532
297.20265
297.1837
297.16849
297.15705
297.14944
297.14567
297.14574
297.14968
297.15757
297.16949
297.18562
297.2059
297.23074
297.25931
297.29377
297.33036
297.37852
297.42205
297.49061
297.53022
297.63382
297.65929
297.80777
297.82506
307.35977
303.2401
300.16531
298.99247
299.01839
299.13307
299.25735
299.27937
299.31282
299.31209
299.31292
299.30222
299.29038
299.27244
299.25025
299.22292
299.19124
299.15536
299.11562
299.07232
299.02572
298.9761
298.92375
298.86892
298.81188
298.75291
298.69225
298.63016
298.56688
298.50265
298.43769
298.37224
298.30651
298.24071
298.17506
298.10975
298.04499
297.98098
297.9179
297.85594
297.79529
297.73612
297.67863
297.62297
297.56932
297.51786
297.46874
297.42213
297.37819
297.33705
297.29886
297.26374
297.23182
297.20321
297.17801
297.15629
297.13813
297.12357
297.11263
297.10533
297.10172
297.10181
297.10559
297.11309
297.12437
297.13953
297.15872
297.1819
297.20943
297.24059
297.27733
297.31632
297.36624
297.41192
297.48155
297.52359
297.62762
297.65466
297.80492
297.82049
306.27378
301.11876
299.14579
298.25782
298.50568
298.56387
298.68904
298.69925
298.74737
298.76041
298.78196
298.78619
298.78791
298.78139
298.77093
298.75568
298.73649
298.71338
298.68668
298.65665
298.62351
298.58749
298.54879
298.50763
298.4642
298.4187
298.37133
298.32228
298.27175
298.21995
298.16708
298.11333
298.05892
298.00405
297.94893
297.89377
297.83877
297.78414
297.73008
297.6768
297.6245
297.57337
297.52362
297.47543
297.42901
297.38452
297.34217
297.30212
297.26454
297.22958
297.19739
297.16812
297.14188
297.1188
297.09896
297.08247
297.06938
297.05973
297.05352
297.0508
297.05159
297.0559
297.06372
297.07507
297.09001
297.10863
297.13109
297.15735
297.18773
297.22159
297.26074
297.3022
297.35399
297.40177
297.47261
297.51698
297.62143
297.65008
297.8021
297.81612
305.25277
300.00885
298.5702
297.8421
298.19835
298.18404
298.31608
298.29828
298.34583
298.34277
298.35757
298.35406
298.35355
298.34659
298.3381
298.32626
298.31198
298.29506
298.2757
298.25398
298.22998
298.20377
298.17544
298.14506
298.11274
298.07858
298.04268
298.00517
297.96618
297.92586
297.88436
297.84183
297.79846
297.75441
297.70986
297.66501
297.62006
297.57519
297.53061
297.48652
297.44312
297.40062
297.35922
297.31913
297.28055
297.24367
297.20869
297.1758
297.14516
297.11694
297.09129
297.06836
297.04829
297.03118
297.01714
297.00626
296.99859
296.99417
296.993
296.99512
297.00054
297.00928
297.02132
297.03667
297.0554
297.0776
297.10341
297.13281
297.16609
297.20268
297.24429
297.2882
297.34192
297.39169
297.46395
297.51035
297.61555
297.64557
297.79937
297.81206
304.73597
298.92598
297.93653
297.2941
297.7468
297.6683
297.82812
297.79694
297.85992
297.85763
297.88262
297.88477
297.89212
297.89203
297.89109
297.88689
297.88062
297.872
297.86126
297.84845
297.83366
297.81694
297.79838
297.77801
297.75592
297.73217
297.70684
297.68001
297.65179
297.62227
297.59156
297.55979
297.52711
297.49364
297.45955
297.425
297.39016
297.35522
297.32036
297.28576
297.25164
297.21818
297.1856
297.1541
297.12387
297.09513
297.06807
297.04287
297.0197
296.99875
296.98016
296.96408
296.95064
296.93997
296.93216
296.92728
296.92542
296.92658
296.93077
296.93801
296.94833
296.96174
296.9782
296.99774
297.02041
297.04631
297.07558
297.10821
297.14448
297.18385
297.22797
297.27434
297.33005
297.38179
297.45549
297.50383
297.60981
297.64119
297.79663
297.80828
304.25835
297.76765
297.37104
296.7635
297.28878
297.16231
297.35467
297.31222
297.39139
297.3889
297.42233
297.42865
297.44285
297.44897
297.45494
297.45765
297.45851
297.45728
297.45418
297.44927
297.44265
297.43437
297.42449
297.41307
297.40015
297.38579
297.37003
297.35294
297.33458
297.31502
297.29436
297.27269
297.25011
297.22674
297.20271
297.17816
297.15323
297.12809
297.1029
297.07784
297.0531
297.02886
297.00532
296.98267
296.96112
296.94086
296.92207
296.90494
296.88965
296.87635
296.86521
296.85636
296.84995
296.84607
296.84483
296.8463
296.85054
296.85757
296.86738
296.87998
296.89542
296.91367