/*--------------------------------*- C++ -*----------------------------------*\
| =========                 |                                                 |
| \\      /  F ield         | OpenFOAM: The Open Source CFD Toolbox           |
|  \\    /   O peration     | Version:  2512                                  |
|   \\  /    A nd           | Website:  www.openfoam.com                      |
|    \\/     M anipulation  |                                                 |
\*---------------------------------------------------------------------------*/
FoamFile
{
    version     2.0;
    format      ascii;
    arch        "LSB;label=32;scalar=64";
    class       volVectorField;
    location    "0.142";
    object      U;
}
// * * * * * * * * * * * * * * * * * * * * * * * * * * * * * * * * * * * * * //

dimensions      [0 1 -1 0 0 0 0];

internalField   nonuniform List<vector> 
16000
(
(214.81645 -3.1197899e-17 -8.3426146)
(251.97298 0 5.3526258)
(238.37131 0 -7.5452983)
(246.07833 4.9560087e-17 3.7640593)
(241.47725 -4.9011759e-17 -5.9369095)
(243.73815 0 1.7363379)
(241.98306 0 -4.320297)
(242.52429 8.3857973e-17 -0.041665089)
(241.71402 -7.9699072e-17 -3.1629198)
(241.61662 0 -1.2792208)
(241.1229 7.201736e-17 -2.5749563)
(240.7938 -2.0517677e-16 -1.99692)
(240.36597 1.2987129e-16 -2.4366443)
(239.95134 -1.2354004e-16 -2.3749634)
(239.50703 1.1721821e-16 -2.5374222)
(239.04753 -3.4772681e-18 -2.6105482)
(238.56822 -3.3033174e-18 -2.7153364)
(238.07015 -9.7474834e-17 -2.8094053)
(237.55287 1.9097578e-16 -2.9053051)
(237.01635 -9.0611144e-17 -2.9990535)
(236.4605 1.7235623e-16 -3.0910385)
(235.88529 -1.6337928e-16 -3.1805623)
(235.29079 0 -3.2671238)
(234.67714 1.5208156e-16 -3.3501379)
(234.04454 -4.1153596e-18 -3.4290093)
(233.39333 -2.6542884e-16 -3.5031095)
(232.72395 1.2580345e-16 -3.5718017)
(232.03695 0 -3.6344346)
(231.33301 0 -3.6903587)
(230.61293 2.1847928e-16 -3.7389309)
(229.87768 -2.0356206e-16 -3.7795284)
(229.12832 0 -3.8115566)
(228.36609 0 -3.834461)
(227.59233 0 -3.8477412)
(226.80855 5.1357763e-18 -3.8509608)
(226.01635 1.5585552e-16 -3.8437604)
(225.21744 -1.4267073e-16 -3.8258688)
(224.41365 -1.3973671e-16 -3.797112)
(223.60688 1.2372654e-16 -3.757423)
(222.7991 0 -3.70685)
(221.9923 -1.1841886e-16 -3.6455581)
(221.18849 1.1177309e-16 -3.5738344)
(220.38971 -2.118334e-16 -3.4920852)
(219.59792 1.9985781e-16 -3.4008333)
(218.81505 -1.9519321e-16 -3.300711)
(218.04294 3.57367e-16 -3.1924496)
(217.28334 5.6005684e-18 -3.0768679)
(216.53786 2.9828146e-19 -2.9548574)
(215.80798 -1.5042144e-16 -2.8273653)
(215.09503 1.4226692e-16 -2.6953775)
(214.40015 -1.2566521e-16 -2.5599002)
(213.72432 0 -2.4219404)
(213.06835 7.4690673e-18 -2.2824899)
(212.43284 0 -2.1425065)
(211.81823 6.6465956e-18 -2.0029001)
(211.22476 2.0695967e-16 -1.8645203)
(210.65249 -3.7827314e-16 -1.7281443)
(210.10134 1.0922758e-17 -1.5944667)
(209.57101 1.6809423e-16 -1.4640891)
(209.06102 -1.4878827e-16 -1.3375268)
(208.5707 1.4015039e-16 -1.2151833)
(208.09925 -8.819104e-18 -1.0973958)
(207.64574 0 -0.98439786)
(207.209 0 -0.87632048)
(206.78753 -1.1113837e-16 -0.77321799)
(206.37949 1.1181818e-16 -0.67506947)
(205.98266 -9.9082502e-17 -0.58179841)
(205.5946 1.9340662e-16 -0.4932861)
(205.21287 -1.8875127e-16 -0.40938387)
(204.8352 8.3677925e-17 -0.32992897)
(204.45938 5.2841424e-18 -0.25475401)
(204.08276 0 -0.18369724)
(203.70195 4.7510031e-18 -0.11665044)
(203.31343 -4.5129618e-18 -0.053473998)
(202.91524 0 0.0062480704)
(202.50745 -3.3750252e-17 0.060885106)
(202.07869 6.2470204e-17 0.11101137)
(201.7036 -3.1744457e-17 0.18859857)
(201.08173 0 0.095748396)
(200.97414 0 0.53566956)
(216.111 0 -11.154035)
(253.58904 -3.709077e-18 3.3088501)
(239.27791 -1.1965241e-16 -10.468861)
(247.52252 1.1010924e-16 1.6804331)
(242.57038 0 -8.796293)
(245.05987 1.0140694e-16 -0.42127356)
(243.10249 -1.8742658e-16 -7.0638821)
(243.73008 -1.0221835e-19 -2.3228559)
(242.82945 8.4464929e-17 -5.7527754)
(242.73208 0 -3.6781751)
(242.19748 -1.5257913e-16 -5.0514167)
(241.83908 1.4925053e-16 -4.4413477)
(241.37897 1.4195964e-16 -4.8677692)
(240.92966 -2.6133279e-16 -4.8071579)
(240.45054 1.2013889e-16 -4.9498631)
(239.95435 1.1045272e-17 -5.0160177)
(239.43736 1.1550001e-16 -5.105588)
(238.90031 -1.0286653e-16 -5.1862995)
(238.34291 0 -5.266514)
(237.76515 0 -5.3435302)
(237.16703 5.6765901e-18 -5.4172278)
(236.54862 -1.7807643e-16 -5.4868981)
(235.91009 3.3766636e-16 -5.5519049)
(235.2517 -3.1552438e-16 -5.6115627)
(234.57382 1.4261349e-16 -5.66517)
(233.87695 0 -5.7120099)
(233.16169 1.2438564e-16 -5.7513548)
(232.4288 -1.3337799e-16 -5.7824818)
(231.67915 0 -5.8046792)
(230.91379 3.5250663e-18 -5.8172585)
(230.1339 -1.3369919e-17 -5.8195651)
(229.34079 0 -5.8109947)
(228.53596 0 -5.7910008)
(227.72099 -1.7059926e-16 -5.7591156)
(226.89764 3.3875091e-16 -5.7149587)
(226.06776 -1.6266439e-16 -5.6582515)
(225.2333 -1.5907102e-16 -5.5888311)
(224.3963 1.4558988e-16 -5.5066569)
(223.55884 -1.121383e-16 -5.411822)
(222.72307 -2.872627e-19 -5.304558)
(221.89111 -2.686989e-19 -5.1852367)
(221.06508 2.3275845e-16 -5.0543706)
(220.24705 -1.0981844e-16 -4.9126079)
(219.43902 0 -4.760724)
(218.64289 2.02352e-16 -4.5996122)
(217.86044 1.1937554e-17 -4.4302679)
(217.09329 -5.1158477e-18 -4.2537721)
(216.34294 -1.6452064e-16 -4.0712721)
(215.61068 0 -3.8839612)
(214.89764 -1.4654377e-16 -3.6930572)
(214.20475 -8.8586286e-18 -3.4997815)
(213.53275 2.6009451e-16 -3.305337)
(212.8822 -1.3007978e-16 -3.1108899)
(212.25345 0 -2.9175506)
(211.64671 -2.0381847e-17 -2.7263589)
(211.06197 -2.1119819e-16 -2.5382719)
(210.49907 3.6125752e-16 -2.3541523)
(209.95771 -2.1526574e-16 -2.1747597)
(209.43741 0 -2.0007423)
(208.93754 -1.7079072e-16 -1.8326437)
(208.45726 1.7947583e-16 -1.6708788)
(207.99565 2.6684927e-17 -1.5157722)
(207.55167 0 -1.3675466)
(207.12408 -1.418829e-16 -1.2263021)
(206.71136 7.321172e-18 -1.0920537)
(206.31167 1.1170254e-16 -0.96473482)
(205.92278 -1.9735594e-17 -0.8442167)
(205.54219 9.2994665e-17 -0.73032271)
(205.16738 -1.0511706e-16 -0.62284038)
(204.79601 5.5081912e-18 -0.52153997)
(204.42586 -5.1973437e-18 -0.42618423)
(204.05433 0 -0.33654189)
(203.67805 -4.6374153e-18 -0.25246024)
(203.29331 4.3863526e-18 -0.17379619)
(202.89752 8.30762e-18 -0.10039441)
(202.48993 9.8439278e-19 -0.033081757)
(202.07395 0 0.033255536)
(201.65366 3.0225072e-17 0.096654588)
(201.1362 -5.7570724e-17 0.068042702)
(200.87741 2.5856295e-17 0.43492796)
(217.26707 0 -14.038475)
(255.05312 -1.2199675e-16 1.0680865)
(240.23176 2.4970738e-16 -13.478741)
(248.75703 -2.2259573e-16 -0.57485841)
(243.55008 1.1014613e-16 -11.734032)
(246.1751 -3.2583809e-18 -2.7715813)
(244.09043 9.9262349e-17 -9.8585037)
(244.74317 -9.3977003e-17 -4.8019385)
(243.78553 -5.5808759e-18 -8.4100567)
(243.66473 -5.2985614e-18 -6.2439064)
(243.09446 -1.0066663e-17 -7.6288868)
(242.69976 1.3888284e-16 -7.0241925)
(242.20387 -1.4078379e-16 -7.4198266)
(241.71572 1.381751e-16 -7.3663091)
(241.19716 -1.1870246e-16 -7.4879126)
(240.65987 -1.5558061e-17 -7.5462172)
(240.10052 0 -7.6203786)
(239.51985 -1.1908335e-20 -7.6864288)
(238.91765 -2.2629597e-16 -7.7497386)
(238.29401 -3.6793538e-19 -7.8082811)
(237.64903 1.7345058e-16 -7.861623)
(236.98294 1.7038021e-17 -7.9089737)
(236.29603 -2.1550641e-17 -7.9495793)
(235.58873 0 -7.9826509)
(234.86159 6.6472743e-21 -8.0073906)
(234.1153 -1.6543491e-16 -8.0229936)
(233.35069 1.4779549e-16 -8.0286599)
(232.56875 8.2486258e-18 -8.0236014)
(231.7706 0 -8.0070616)
(230.95758 -7.400092e-18 -7.9783216)
(230.13113 -2.2871738e-21 -7.936722)
(229.29288 -1.9920524e-16 -7.8816745)
(228.4446 2.0062257e-16 -7.8126785)
(227.5882 1.1889491e-17 -7.7293409)
(226.72572 -1.7997111e-16 -7.6313856)
(225.85929 1.4852796e-16 -7.5186719)
(224.99111 -1.8098505e-16 -7.3912042)
(224.12347 1.5169553e-16 -7.2491422)
(223.25865 -1.4363277e-16 -7.0928051)
(222.39894 1.353671e-16 -6.9226768)
(221.5466 1.6006527e-17 -6.7394031)
(220.7038 0 -6.5437846)
(219.87263 1.9966191e-16 -6.3367695)
(219.05505 -2.416712e-16 -6.1194378)
(218.25288 0 -5.8929854)
(217.46777 1.793693e-16 -5.6587046)
(216.70116 -1.5739959e-16 -5.4179598)
(215.95433 1.6982911e-16 -5.1721651)
(215.22833 -1.796339e-16 -4.9227591)
(214.524 0 -4.6711806)
(213.84199 1.771354e-16 -4.4188456)
(213.18273 -1.3312325e-16 -4.1671232)
(212.54647 0 -3.9173176)
(211.93326 0 -3.6706503)
(211.34301 1.2473318e-16 -3.4282443)
(210.77542 -2.083126e-16 -3.191116)
(210.2301 1.2228368e-16 -2.960164)
(209.70646 1.8403261e-16 -2.7361645)
(209.20384 1.9826252e-19 -2.5197645)
(208.7214 1.7633206e-19 -2.3114893)
(208.25816 -3.2392871e-16 -2.1117283)
(207.81303 8.9397165e-17 -1.9207562)
(207.38489 0 -1.7387518)
(206.97239 1.4208343e-16 -1.565759)
(206.574 -1.6298367e-16 -1.4017295)
(206.18785 1.1139882e-16 -1.2465313)
(205.81173 1.3148065e-17 -1.0999663)
(205.44313 -8.5958993e-17 -0.96178839)
(205.07947 1.1543206e-17 -0.83171871)
(204.71839 2.1708291e-17 -0.70946433)
(204.35764 -1.0208572e-16 -0.59471496)
(203.99477 9.6011498e-17 -0.48715959)
(203.62646 -7.2340426e-17 -0.38662553)
(203.24878 1.3626695e-16 -0.29303774)
(202.85895 -5.6191791e-17 -0.20614723)
(202.45736 -6.0627625e-17 -0.12564654)
(202.0467 5.0092349e-17 -0.048627201)
(201.61366 0 0.012774469)
(201.14617 3.2056219e-18 0.035275841)
(200.8168 -1.2156826e-17 0.32927754)
(218.25668 0 -16.991715)
(256.36042 0 -1.3064964)
(240.96646 0 -16.61827)
(249.79198 1.0637371e-16 -2.9339869)
(244.33923 -1.2375304e-16 -14.799345)
(247.11785 -2.2019381e-16 -5.2392587)
(244.89188 2.0959972e-16 -12.770195)
(245.57248 -1.2410513e-17 -7.407861)
(244.55054 5.9112177e-18 -11.177368)
(244.40247 -1.7381959e-16 -8.9409042)
(243.7922 1.7018644e-16 -10.317469)
(243.35588 1.0114077e-17 -9.732349)
(242.81956 -1.5359407e-16 -10.089114)
(242.2875 1.364439e-16 -10.044262)
(241.72466 -1.3158713e-20 -10.143364)
(241.14141 -8.184132e-18 -10.191744)
(240.535 0 -10.248758)
(239.90609 -7.3872553e-18 -10.297578)
(239.25463 -2.1029171e-16 -10.341236)
(238.5808 2.1233664e-16 -10.378165)
(237.88483 1.2603763e-17 -10.407708)
(237.16709 -1.1949506e-17 -10.42899)
(236.42805 2.153397e-16 -10.441154)
(235.66833 -1.7152768e-16 -10.443316)
(234.8887 1.0171799e-17 -10.434578)
(234.09008 1.9288038e-16 -10.414056)
(233.27359 -1.2758845e-16 -10.380874)
(232.4405 0 -10.334193)
(231.59227 1.4743033e-16 -10.27322)
(230.73055 -1.2374794e-16 -10.197234)
(229.85714 2.4940132e-16 -10.105595)
(228.97402 -1.3318005e-17 -9.9977709)
(228.08331 -2.0948976e-16 -9.8733542)
(227.18727 1.7375818e-16 -9.7320789)
(226.28824 -1.8717805e-16 -9.5738348)
(225.38866 -3.1650169e-20 -9.3986843)
(224.49101 2.0925267e-16 -9.2068696)
(223.59778 -3.1579554e-16 -8.9988187)
(222.71142 9.2942678e-17 -8.7751484)
(221.83435 3.5190731e-17 -8.5366596)
(220.96887 -4.975983e-17 -8.2843324)
(220.11716 0 -8.0193098)
(219.28125 -8.8542499e-17 -7.7428838)
(218.46298 1.3867096e-16 -7.4564721)
(217.66398 -2.0938519e-16 -7.1615959)
(216.88567 1.967375e-16 -6.8598545)
(216.12924 -2.086723e-16 -6.5528946)
(215.39564 3.9237744e-16 -6.2423846)
(214.68559 -3.0749744e-16 -5.9299861)
(213.99958 3.0835209e-16 -5.6173276)
(213.3379 -1.4472888e-16 -5.3059799)
(212.70062 1.3623832e-16 -4.9974348)
(212.08762 -9.577261e-17 -4.6930849)
(211.4986 3.0032543e-17 -4.3942116)
(210.93315 0 -4.1019694)
(210.39067 0 -3.817382)
(209.87048 0 -3.5413348)
(209.37176 2.3247022e-17 -3.2745729)
(208.8936 0 -3.0176987)
(208.43502 -1.6362136e-16 -2.7711805)
(207.99484 1.915453e-16 -2.5353469)
(207.57188 -1.0781276e-16 -2.3103961)
(207.16489 -1.1650979e-19 -2.0964327)
(206.77247 2.5223596e-16 -1.893427)
(206.39305 2.9624345e-17 -1.7012511)
(206.0248 -1.3834537e-16 -1.5196956)
(205.6655 5.1880606e-17 -1.3484852)
(205.31268 -1.4575189e-16 -1.1872984)
(204.96374 -4.554307e-17 -1.0357886)
(204.61624 -6.4020373e-17 -0.89359779)
(204.26799 -6.0035268e-17 -0.76033607)
(203.91665 5.626098e-17 -0.63562116)
(203.55898 0 -0.51930419)
(203.19088 0 -0.41132779)
(202.80969 -1.5508001e-17 -0.31102017)
(202.41637 0 -0.217823)
(202.01036 6.8507393e-18 -0.13253958)
(201.57896 5.1588237e-17 -0.064096117)
(201.14204 -7.2873063e-17 -0.0076511261)
(200.7597 -1.2969878e-20 0.22161667)
(219.06174 0 -20.142092)
(257.49179 -8.777901e-18 -3.7532279)
(241.56207 2.6644007e-16 -19.890181)
(250.63439 -2.4841471e-16 -5.4188661)
(244.8918 2.5399683e-16 -17.978314)
(247.85375 -2.3215521e-16 -7.8598145)
(245.48948 -2.214878e-16 -15.786871)
(246.18741 2.0959501e-16 -10.17118)
(245.10279 0 -14.04717)
(244.91776 0 -11.787113)
(244.26554 1.7969247e-16 -13.119532)
(243.7811 -1.7023573e-16 -12.572286)
(243.19987 -1.0113328e-17 -12.880277)
(242.61898 2.8767455e-17 -12.843233)
(242.00716 -9.1035953e-18 -12.917676)
(241.37332 3.4529366e-17 -12.952365)
(240.71523 0 -12.989324)
(240.03351 0 -13.017253)
(239.32822 -2.3582135e-16 -13.037566)
(238.59966 2.0913947e-16 -13.048918)
(237.84822 0 -13.050457)
(237.07446 0 -13.04119)
(236.27907 -1.9029339e-16 -13.020117)
(235.46294 3.6012778e-16 -12.986234)
(234.62713 -1.7032759e-16 -12.938531)
(233.7729 -2.0178217e-17 -12.876027)
(232.90172 -3.8218884e-17 -12.797779)
(232.01525 -1.448177e-16 -12.702908)
(231.11536 1.1956792e-16 -12.590618)
(230.2041 0 -12.460219)
(229.2837 -3.0625249e-17 -12.311146)
(228.35656 0 -12.142988)
(227.4252 0 -11.9555)
(226.49224 2.067371e-16 -11.748625)
(225.56038 -2.1912366e-16 -11.522506)
(224.63235 2.2985418e-17 -11.277498)
(223.71087 -2.1688199e-17 -11.01417)
(222.79861 -4.1006292e-17 -10.733308)
(221.89813 -8.8659421e-20 -10.435911)
(221.0119 8.4134237e-20 -10.123171)
(220.14219 -7.9326426e-20 -9.7964694)
(219.29107 0 -9.457343)
(218.4604 -1.2172866e-16 -9.1074686)
(217.65179 1.1430877e-16 -8.7486269)
(216.86657 0 -8.3826741)
(216.10582 -5.0667588e-17 -8.0115131)
(215.37036 1.904299e-16 -7.6370543)
(214.66072 -2.2323809e-16 -7.2611905)
(213.97721 -2.1002944e-16 -6.885765)
(213.31988 1.5746787e-16 -6.5125458)
(212.68859 1.1106146e-16 -6.1432022)
(212.08298 -1.3863112e-16 -5.7792869)
(211.50255 -3.2501686e-17 -5.4222182)
(210.94664 -2.1352388e-16 -5.0732725)
(210.41446 1.1420136e-16 -4.733573)
(209.90512 -1.0711005e-16 -4.40409)
(209.41764 1.0018616e-16 -4.0856391)
(208.95098 2.3474088e-16 -3.7788816)
(208.50403 -1.7556734e-16 -3.484328)
(208.0756 0 -3.2023483)
(207.66442 -3.8420156e-17 -2.933171)
(207.26918 -7.191766e-17 -2.6768916)
(206.88852 1.3438433e-16 -2.433512)
(206.52103 1.257305e-16 -2.2029088)
(206.16513 -2.3496202e-16 -1.984859)
(205.81899 8.2290787e-17 -1.7790637)
(205.48047 5.129797e-17 -1.5851607)
(205.14713 9.5904092e-17 -1.4027496)
(204.81638 1.3445136e-16 -1.2314152)
(204.48574 2.4181075e-20 -1.0707325)
(204.15309 0 -0.92022778)
(203.8162 0 -0.77946897)
(203.4719 -3.421913e-17 -0.64835107)
(203.11614 9.6010587e-17 -0.52669639)
(202.7465 -8.9798588e-17 -0.41336304)
(202.36353 -8.4061592e-17 -0.3085748)
(201.96414 5.2457023e-17 -0.21558071)
(201.5421 0 -0.13492689)
(201.12503 4.6078915e-17 -0.055041207)
(200.70853 2.2751382e-20 0.11559008)
(219.66684 0 -23.462371)
(258.42499 1.827521e-20 -6.2771583)
(241.96352 9.0658876e-18 -23.259856)
(251.30451 2.8769895e-16 -8.0398064)
(245.28334 3.33477e-19 -21.257719)
(248.35751 -5.0515919e-16 -10.627417)
(245.84176 -3.2409427e-19 -18.896215)
(246.56317 4.5583652e-16 -13.094104)
(245.41233 -2.0979565e-16 -17.015483)
(245.18656 -1.2444085e-17 -14.780272)
(244.49152 1.1819383e-17 -16.032318)
(243.95404 -1.794806e-16 -15.535591)
(243.32424 1.9122195e-16 -15.786871)
(242.69025 -1.8169633e-16 -15.753819)
(242.02495 3.0607819e-16 -15.801573)
(241.33572 -3.0838907e-16 -15.818413)
(240.62092 1.3744743e-16 -15.832237)
(239.88115 0 -15.835581)
(239.11666 0 -15.828699)
(238.32797 1.4641022e-17 -15.81024)
(237.51572 -2.7763411e-17 -15.779121)
(236.68076 0 -15.734175)
(235.82414 1.9936548e-16 -15.674239)
(234.9471 4.7444374e-19 -15.598172)
(234.05112 -3.5679624e-16 -15.504856)
(233.13792 1.6858699e-16 -15.393236)
(232.20942 1.9946537e-17 -15.26234)
(231.26778 0 -15.111294)
(230.31536 -1.7869583e-16 -14.939362)
(229.35471 1.3474416e-16 -14.745962)
(228.38855 -2.2345025e-16 -14.530693)
(227.41974 2.103153e-16 -14.29336)
(226.45124 -2.2762617e-16 -14.033984)
(225.48605 2.1425706e-16 -13.75283)
(224.52719 7.5955727e-17 -13.450406)
(223.57766 0 -13.127467)
(222.64034 0 -12.78502)
(221.718 4.2331863e-17 -12.424307)
(220.81324 3.9871519e-17 -12.04679)
(219.92841 -3.7538663e-17 -11.654132)
(219.06563 3.5327487e-17 -11.248168)
(218.22674 6.6657335e-17 -10.830869)
(217.41327 -6.2602927e-17 -10.404315)
(216.62645 3.5297842e-16 -9.9706541)
(215.86719 -2.7611608e-16 -9.5320616)
(215.13611 5.1823161e-17 -9.0907109)
(214.43351 -4.8766489e-17 -8.6487323)
(213.75943 0 -8.208185)
(213.11367 2.1433766e-16 -7.7710271)
(212.49579 -1.605453e-16 -7.3390941)
(211.90515 0 -6.9140771)
(211.34097 0 -6.4975121)
(210.80231 1.3210632e-16 -6.0907667)
(210.28813 -6.1748529e-17 -5.6950382)
(209.79731 0 -5.3113501)
(209.32866 -1.622425e-16 -4.9405551)
(208.88095 1.0099325e-16 -4.5833405)
(208.45291 1.4175875e-16 -4.2402327)
(208.04326 -1.763376e-16 -3.9116051)
(207.65066 1.6482478e-16 -3.5976915)
(207.27375 -1.537484e-16 -3.298587)
(206.91113 6.7536867e-20 -3.0142589)
(206.56139 0 -2.7445847)
(206.22309 6.2494806e-17 -2.4893308)
(205.89467 -2.9138237e-16 -2.2481681)
(205.57436 1.6296373e-16 -2.0206989)
(205.2601 0 -1.8064707)
(204.94951 -1.41694e-16 -1.6050024)
(204.64003 8.8019465e-17 -1.4158111)
(204.3292 1.2313799e-16 -1.2383996)
(204.01492 3.386506e-20 -1.072215)
(203.69509 -7.1270859e-17 -0.9168071)
(203.36668 9.9676244e-17 -0.77209718)
(203.02581 -1.5484558e-16 -0.63763811)
(202.67027 8.6608674e-17 -0.51199189)
(202.29946 2.6906148e-17 -0.39685136)
(201.9092 5.0222108e-17 -0.29613406)
(201.50096 0 -0.20015989)
(201.10043 -4.3747813e-17 -0.10329684)
(200.65842 2.0374515e-17 0.012465495)
(220.06147 0 -26.949167)
(259.15461 9.7672597e-18 -8.9086051)
(242.16811 -3.0564344e-16 -26.755682)
(251.79183 2.4910557e-16 -10.801457)
(245.48534 2.5637111e-16 -24.636833)
(248.61878 -4.9958366e-16 -13.548357)
(246.00162 2.2997493e-16 -22.088131)
(246.69079 2.3276084e-16 -16.177215)
(245.4955 -2.2065457e-16 -20.066981)
(245.20187 3.9274839e-17 -17.90669)
(244.46181 0 -19.043861)
(243.86529 0 -18.607521)
(243.18138 -2.2339741e-17 -18.79906)
(242.48785 -1.6961682e-16 -18.766372)
(241.76217 1.4037183e-16 -18.787161)
(241.01037 1.9043383e-17 -18.782951)
(240.23147 -3.6099203e-17 -18.770886)
(239.42622 3.0798922e-16 -18.745897)
(238.59521 -2.2632611e-16 -18.707433)
(237.73928 2.4566088e-16 -18.654028)
(236.85945 -2.0300523e-16 -18.584387)
(235.957 2.7525667e-17 -18.497184)
(235.03342 1.5637612e-16 -18.391116)
(234.09049 -1.9667852e-16 -18.264943)
(233.13021 0 -18.117491)
(232.15485 0 -17.947689)
(231.16692 0 -17.754606)
(230.16917 -1.9699493e-16 -17.537471)
(229.16455 1.8556406e-16 -17.295703)
(228.15618 -3.5164096e-17 -17.028943)
(227.14731 0 -16.737079)
(226.14129 -2.8188373e-16 -16.420265)
(225.1415 2.3558809e-16 -16.078931)
(224.15129 -5.5726889e-17 -15.713794)
(223.17394 1.5759333e-16 -15.325867)
(222.2126 -4.8970053e-17 -14.916433)
(221.27024 -1.8575349e-16 -14.487048)
(220.34956 2.1913868e-16 -14.039506)
(219.45301 -1.6451439e-16 -13.575816)
(218.58271 7.7606383e-17 -13.098163)
(217.74042 -7.2816176e-17 -12.608873)
(216.92756 1.3689161e-16 -12.110364)
(216.14517 -6.4140206e-17 -11.605108)
(215.39394 -2.4141714e-16 -11.095585)
(214.6742 5.0906484e-16 -10.584243)
(213.98597 -2.1202303e-16 -10.073455)
(213.32896 -1.4941461e-16 -9.5654956)
(212.7026 9.2894336e-17 -9.0624999)
(212.10612 8.7388309e-17 -8.5664491)
(211.53855 -1.6347825e-16 -8.0791496)
(210.99875 1.5274436e-16 -7.6022212)
(210.48548 0 -7.1370918)
(209.99739 1.3369696e-16 -6.6849934)
(209.53309 -1.872706e-16 -6.2469657)
(209.09114 5.836055e-17 -5.823861)
(208.6701 5.4388826e-17 -5.416352)
(208.26852 0 -5.024943)
(207.88496 0 -4.649979)
(207.51799 0 -4.2916566)
(207.1662 0 -3.9500413)
(206.82815 0 -3.6250686)
(206.50239 -7.1463089e-17 -3.3165577)
(206.18751 0 -3.0242476)
(205.88208 -5.4903691e-20 -2.7477821)
(205.58456 2.3076862e-16 -2.4867196)
(205.29327 -2.1467775e-16 -2.2405598)
(205.00627 -9.9934957e-17 -2.0087583)
(204.72127 -1.8581562e-16 -1.7907563)
(204.43577 2.5901637e-16 -1.5860029)
(204.14735 4.5313401e-20 -1.3939264)
(203.85395 7.4603509e-17 -1.2139096)
(203.55355 0 -1.0455146)
(203.2433 0 -0.88863042)
(202.91974 0 -0.74242659)
(202.58065 -1.11359e-16 -0.60549875)
(202.22381 0 -0.4813378)
(201.84526 -9.6214704e-17 -0.3726321)
(201.45431 1.3414377e-16 -0.26010422)
(201.06904 8.316111e-17 -0.15320148)
(200.60807 -1.9271336e-17 -0.086675784)
(220.24932 0 -30.61187)
(259.68695 0 -11.648326)
(242.18076 3.2155923e-16 -30.383327)
(252.09884 1.9257688e-17 -13.720553)
(245.49791 -2.6910584e-16 -28.126557)
(248.72603 0 -16.644359)
(245.94509 1.6121741e-17 -25.355356)
(246.69412 -3.0552428e-17 -19.41127)
(245.31587 0 -23.18289)
(244.96191 1.926317e-16 -21.153356)
(244.16959 -4.1707549e-16 -22.154217)
(243.5029 1.9749643e-16 -21.786246)
(242.75461 2.3443316e-17 -21.919985)
(241.99127 0 -21.88306)
(241.19499 2.1034992e-17 -21.875874)
(240.37067 -3.3933059e-16 -21.846085)
(239.51798 7.4804398e-17 -21.803433)
(238.63796 2.5007784e-16 -21.744269)
(237.73158 2.3750261e-16 -21.667547)
(236.80013 -2.5617435e-16 -21.571676)
(235.84515 0 -21.455188)
(234.86844 -2.8744979e-16 -21.316634)
(233.87213 2.4405879e-16 -21.154618)
(232.8586 -2.0571833e-16 -20.967858)
(231.83053 1.9389023e-16 -20.7552)
(230.79089 -1.8375457e-16 -20.515649)
(229.74289 3.4664348e-16 -20.24843)
(228.68996 -1.6358525e-16 -19.952993)
(227.63571 1.5471217e-16 -19.629067)
(226.58386 -2.9168372e-16 -19.276672)
(225.53821 1.372818e-16 -18.89615)
(224.50257 1.2965583e-16 -18.488175)
(223.48067 -2.446321e-16 -18.053751)
(222.47612 5.6786969e-17 -17.594216)
(221.49231 -5.7719376e-19 -17.111227)
(220.53241 2.5451305e-16 -16.606726)
(219.59923 0 -16.082923)
(218.69523 1.9795823e-19 -15.54225)
(217.82249 0 -14.98731)
(216.98263 -7.9446478e-17 -14.420838)
(216.17687 -1.4930884e-16 -13.845643)
(215.40599 7.0109084e-17 -13.264555)
(214.67034 0 -12.680383)
(213.9699 -6.178213e-17 -12.09586)
(213.30428 2.8916939e-16 -11.513604)
(212.67279 -3.2465303e-16 -10.936087)
(212.07444 -3.0419854e-16 -10.365605)
(211.50804 2.8402728e-16 -9.8042536)
(210.97221 -1.7725463e-16 -9.2539176)
(210.46542 0 -8.716262)
(209.98607 0 -8.1927292)
(209.53249 7.2347691e-17 -7.6845415)
(209.10296 6.7518358e-17 -7.1927089)
(208.69578 1.2583099e-16 -6.7180375)
(208.30927 -5.8678119e-17 -6.2611425)
(207.94178 -1.0930424e-16 -5.8224615)
(207.59172 -2.0383226e-16 -5.4022701)
(207.25751 -9.5093131e-17 -5.0006944)
(206.93768 1.7655234e-16 -4.6177252)
(206.63074 0 -4.253237)
(206.33525 -7.6473581e-17 -3.9069886)
(206.04976 -1.4214956e-16 -3.5786399)
(205.77289 1.320745e-16 -3.2677847)
(205.50325 6.1260496e-17 -2.9739397)
(205.23936 5.6977925e-17 -2.6965495)
(204.97966 0 -2.4350125)
(204.72233 1.9643509e-16 -2.1886965)
(204.46523 1.8227797e-16 -1.9569695)
(204.20596 -2.536488e-16 -1.7392128)
(203.94213 7.8449e-17 -1.5347818)
(203.67171 -7.2716745e-17 -1.3430213)
(203.39276 -4.4179109e-20 -1.1635248)
(203.10269 2.4994044e-16 -0.99605751)
(202.7986 -2.316483e-16 -0.83936224)
(202.47798 5.3631507e-17 -0.69247515)
(202.13676 1.4918613e-16 -0.56063374)
(201.77246 -4.6085955e-17 -0.44350752)
(201.40172 -4.2691298e-17 -0.31393171)
(201.03119 0 -0.2024208)
(200.55608 3.6567649e-17 -0.1809797)
(220.23759 3.8893624e-16 -34.459684)
(260.02352 5.4139313e-19 -14.503655)
(241.97227 -3.5840652e-16 -34.156852)
(252.21612 0 -16.799629)
(245.23871 0 -31.687762)
(248.45529 -2.6718444e-16 -19.909423)
(245.58736 2.7050105e-16 -28.679914)
(246.15435 6.4135376e-17 -22.809976)
(244.88329 -2.4349831e-16 -26.404215)
(244.43774 2.303107e-16 -24.548859)
(243.58288 -2.4617198e-16 -25.390979)
(242.83336 2.069115e-16 -25.086544)
(242.00877 -4.9088867e-17 -25.161489)
(241.16406 -4.6553621e-17 -25.110481)
(240.28576 -1.7640477e-16 -25.070127)
(239.3779 1.6661834e-16 -25.006896)
(238.44082 -3.558302e-16 -24.92563)
(237.47595 5.9813533e-16 -24.823369)
(236.48484 -2.826116e-16 -24.698658)
(235.46935 -2.6816083e-16 -24.549749)
(234.43169 2.5287552e-16 -24.375021)
(233.37441 -3.0120461e-17 -24.17293)
(232.30037 -2.2669533e-16 -23.942055)
(231.21279 2.1354531e-16 -23.681166)
(230.11518 2.5298046e-16 -23.389238)
(229.01133 -1.4263977e-16 -23.065503)
(227.90524 0 -22.709502)
(226.80111 2.5511353e-16 -22.3211)
(225.70324 -3.2043096e-16 -21.900531)
(224.61594 1.1273829e-16 -21.448406)
(223.54351 -2.8506583e-16 -20.96573)
(222.49009 2.0084326e-16 -20.453898)
(221.45964 -6.3289803e-17 -19.914681)
(220.45581 2.3783029e-16 -19.350202)
(219.48191 -2.2308925e-16 -18.762909)
(218.54081 -2.1026426e-16 -18.155516)
(217.63493 1.970765e-16 -17.530964)
(216.76619 -4.6221382e-17 -16.89236)
(215.93599 0 -16.242906)
(215.14523 8.1803607e-17 -15.585851)
(214.39428 -7.6346473e-17 -14.92442)
(213.68308 0 -14.26176)
(213.01111 1.344448e-16 -13.600892)
(212.37748 -6.289509e-17 -12.944666)
(211.78099 -1.7634408e-16 -12.295727)
(211.22015 5.5008433e-16 -11.65649)
(210.69328 -2.0596838e-16 -11.029125)
(210.19851 9.6061861e-17 -10.415545)
(209.73391 -2.6936992e-16 -9.8174057)
(209.29745 -1.8143259e-19 -9.2361089)
(208.88708 1.5618876e-16 -8.6728125)
(208.5008 -1.4570722e-16 -8.1284413)
(208.1366 -6.7809428e-17 -7.6037036)
(207.79255 -6.3164768e-17 -7.099107)
(207.46681 -1.17945e-16 -6.6149769)
(207.15759 2.190384e-16 -6.1514744)
(206.86322 0 -5.7086143)
(206.58211 9.465795e-17 -5.2862802)
(206.31273 -3.5223212e-16 -4.884241)
(206.05364 2.4514926e-16 -4.50217)
(205.80342 7.5868389e-17 -4.1396424)
(205.56069 1.4094548e-16 -3.7961578)
(205.32411 1.3096012e-16 -3.4711671)
(205.09237 -1.211766e-16 -3.1640613)
(204.8641 -1.1229386e-16 -2.8741771)
(204.63787 -3.1237937e-16 -2.6008181)
(204.41201 -4.0303541e-20 -2.3432726)
(204.18454 -8.9275885e-17 -2.1008418)
(203.95319 0 -1.8728398)
(203.71568 -2.2951334e-16 -1.6585586)
(203.46995 7.0774274e-17 -1.4573381)
(203.21408 0 -1.2688001)
(202.94589 1.2109044e-16 -1.092479)
(202.6631 0 -0.92674617)
(202.36264 1.0345368e-16 -0.77149338)
(202.03855 -1.4336878e-16 -0.63326765)
(201.69096 1.324916e-16 -0.50721848)
(201.34266 -8.1598275e-17 -0.36095443)
(200.98635 7.5364493e-17 -0.24889824)
(200.50212 0 -0.26826857)
(220.00953 -4.0859705e-16 -38.499334)
(260.14876 3.6172645e-16 -17.491338)
(241.50733 -3.3250307e-16 -38.101912)
(252.05874 3.3005382e-16 -20.050818)
(244.69194 3.1664542e-16 -35.313249)
(247.96889 -1.7977983e-17 -23.366636)
(245.00003 -2.8346308e-16 -32.09273)
(245.49999 -2.690181e-16 -26.401006)
(244.13619 2.8641348e-16 -29.743479)
(243.58551 0 -28.089345)
(242.65772 2.8578726e-17 -28.757663)
(241.81295 0 -28.505194)
(240.89946 -1.2855369e-16 -28.521066)
(239.96113 2.4272866e-16 -28.444553)
(238.9886 0 -28.363421)
(237.98542 0 -28.256611)
(236.95276 0 -28.125897)
(235.89266 3.9097707e-17 -27.968574)
(234.80742 0 -27.782874)
(233.69975 -2.4452144e-16 -27.566925)
(232.57276 3.2945675e-16 -27.319012)
(231.42992 1.2466307e-16 -27.037606)
(230.2751 1.7676692e-16 -26.721389)
(229.11252 -2.7765863e-16 -26.36934)
(227.94666 -5.2320324e-17 -25.980765)
(226.78226 -2.476247e-16 -25.555346)
(225.6242 1.8636965e-16 -25.09318)
(224.47744 -2.2012911e-16 -24.594811)
(223.34693 8.2352998e-17 -24.061236)
(222.23749 7.7864637e-17 -23.493917)
(221.15371 0 -22.894768)
(220.09988 2.7703959e-16 -22.266126)
(219.07988 -2.6020647e-16 -21.610721)
(218.09711 0 -20.931619)
(217.15441 -2.3004122e-16 -20.232165)
(216.25402 2.1547052e-16 -19.515912)
(215.39759 -1.0154999e-16 -18.786544)
(214.58613 1.9011891e-16 -18.047805)
(213.82006 -2.671431e-16 -17.303421)
(213.09921 1.2758586e-19 -16.557028)
(212.42293 -1.5609047e-16 -15.812117)
(211.79008 -7.3048732e-17 -15.071974)
(211.19915 -1.3710772e-16 -14.339646)
(210.6483 2.5560636e-16 -13.617904)
(210.13547 -1.1927855e-16 -12.909226)
(209.6584 0 -12.215792)
(209.2147 -3.8361942e-19 -11.539473)
(208.80196 9.7041305e-17 -10.881848)
(208.41772 0 -10.244213)
(208.05955 8.4409238e-17 -9.6275906)
(207.72512 7.8926055e-17 -9.032761)
(207.41213 -7.3286789e-17 -8.4602749)
(207.11842 2.7285208e-16 -7.9104782)
(206.84195 -2.5365882e-16 -7.3835349)
(206.58077 -1.1797456e-16 -6.8794469)
(206.33308 -1.0959931e-16 -6.3980761)
(206.09722 1.0176888e-16 -5.9391621)
(205.87161 1.8878226e-16 -5.5023396)
(205.65479 -3.5018964e-16 -5.0871537)
(205.44539 4.0585181e-16 -4.693079)
(205.24207 -1.5038333e-16 -4.3195128)
(205.04356 1.3939623e-16 -3.9658023)
(204.84862 -1.2903947e-16 -3.6312662)
(204.65605 2.3898715e-16 -3.3151792)
(204.4646 -3.3176709e-16 -3.0167811)
(204.27297 2.0452111e-16 -2.7352924)
(204.07969 -8.0411086e-20 -2.4699343)
(203.88296 8.7422938e-17 -2.2199481)
(203.6807 0 -1.9845832)
(203.4707 0 -1.7630859)
(203.25089 0 -1.554826)
(203.01935 -1.2705848e-16 -1.3594205)
(202.77439 1.5021388e-20 -1.176076)
(202.51436 0 -1.0029626)
(202.23534 0 -0.84116627)
(201.92977 9.1900813e-17 -0.69775172)
(201.60135 -1.6935737e-16 -0.56235102)
(201.27688 0 -0.40072645)
(200.93363 0 -0.29124067)
(200.44588 -1.3192418e-16 -0.34432154)
(219.53034 2.7583173e-17 -42.738974)
(260.02248 -7.8321116e-16 -20.629704)
(240.75765 3.4785843e-16 -42.185578)
(251.3673 -2.1695781e-17 -23.485026)
(243.83505 3.7321054e-16 -39.060651)
(247.14003 -3.5165498e-16 -27.047816)
(244.08181 0 -35.6182)
(244.45322 -3.169052e-16 -30.180316)
(243.03862 2.3301099e-16 -33.195878)
(242.36264 2.2131456e-16 -31.768675)
(241.34837 -2.3890291e-16 -32.257375)
(240.39405 0 -32.038258)
(239.37699 1.9660531e-19 -31.993027)
(238.33118 0 -31.877269)
(237.2509 3.8486344e-16 -31.744091)
(236.13972 -7.2704508e-16 -31.580131)
(234.99981 3.4324263e-16 -31.385293)
(233.83412 -4.054499e-17 -31.156936)
(232.64599 -3.853298e-17 -30.893079)
(231.43926 3.6628596e-17 -30.591809)
(230.2182 -6.8381203e-17 -30.251474)
(228.98752 -3.2396315e-16 -29.870726)
(227.75229 3.0490188e-16 -29.44859)
(226.5179 5.7476193e-17 -28.984527)
(225.28994 -2.7241604e-16 -28.478463)
(224.07415 -7.0285162e-19 -27.930858)
(222.87626 2.8932464e-16 -27.342701)
(221.70192 -1.8159825e-16 -26.715535)
(220.55652 -6.2491987e-19 -26.051448)
(219.44512 0 -25.353042)
(218.37231 0 -24.623399)
(217.34211 -7.1469639e-17 -23.866013)