/*--------------------------------*- C++ -*----------------------------------*\
| =========                 |                                                 |
| \\      /  F ield         | OpenFOAM: The Open Source CFD Toolbox           |
|  \\    /   O peration     | Version:  2512                                  |
|   \\  /    A nd           | Website:  www.openfoam.com                      |
|    \\/     M anipulation  |                                                 |
\*---------------------------------------------------------------------------*/
FoamFile
{
    version     2.0;
    format      ascii;
    arch        "LSB;label=32;scalar=64";
    class       volScalarField;
    location    "0.006";
    object      p;
}
// * * * * * * * * * * * * * * * * * * * * * * * * * * * * * * * * * * * * * //

dimensions      [1 -1 -2 0 0 0 0];

internalField   nonuniform List<scalar> 
100
(
100000
100000
100000
100000
100000
100000
100000
100000
100000
100000
100000
100000
100000
100000
100000
100000
100000
100000
100000
100000
100000
100000
100000
100000
100000
100000
99993.2
99553.1
96156.9
89744
83824.9
79099.9
75059.3
71363.9
67878.2
64555.1
61375.7
58329
55406.5
52601.2
49907.3
47320.2
44836.8
42455.2
40174.8
37997.2
35928.9
33988.1
32231.9
30858
30125.5
30112
30473.4
30376.1
30273.8
30226.8
30228.8
30245.2
30238.7
30240.6
30246
30255.6
30264.6
30254.4
30233.3
30262.2
30305.1
30308.8
30491.2
30708.3
30155.3
29878.2
29872.7
29880
30028.8
30617.7
30979.9
30973.6
30717.7
29983.8
29765.4
29711.8
28702.7
18817.1
10337.3
10000.1
10000
10000
10000
10000
10000
10000
10000
10000
10000
10000
10000
10000
10000
10000
)
;

boundaryField
{
    sides
    {
        type            zeroGradient;
    }
    empty
    {
        type            empty;
    }
}


// ************************************************************************* //
