/*--------------------------------*- C++ -*----------------------------------*\
| =========                 |                                                 |
| \\      /  F ield         | OpenFOAM: The Open Source CFD Toolbox           |
|  \\    /   O peration     | Version:  2512                                  |
|   \\  /    A nd           | Website:  www.openfoam.com                      |
|    \\/     M anipulation  |                                                 |
\*---------------------------------------------------------------------------*/
FoamFile
{
    version     2.0;
    format      ascii;
    arch        "LSB;label=32;scalar=64";
    class       volScalarField;
    location    "0.006";
    object      rho;
}
// * * * * * * * * * * * * * * * * * * * * * * * * * * * * * * * * * * * * * //

dimensions      [1 -3 0 0 0 0 0];

internalField   nonuniform List<scalar> 
100
(
0.999645
0.999645
0.999645
0.999645
0.999645
0.999645
0.999645
0.999645
0.999645
0.999645
0.999645
0.999645
0.999645
0.999645
0.999645
0.999645
0.999645
0.999645
0.999645
0.999645
0.999645
0.999645
0.999645
0.999645
0.999645
0.999645
0.999597
0.996441
0.972009
0.925358
0.881475
0.845792
0.814778
0.785984
0.758427
0.731771
0.705894
0.680732
0.656238
0.632373
0.609107
0.586421
0.564306
0.542763
0.521808
0.501476
0.481852
0.463143
0.445938
0.432226
0.425081
0.424876
0.428452
0.427467
0.426418
0.425943
0.426129
0.426648
0.427117
0.427419
0.427472
0.427393
0.426779
0.424661
0.419349
0.407528
0.382794
0.342714
0.300752
0.274179
0.26181
0.259039
0.259074
0.259532
0.261134
0.265575
0.2683
0.268654
0.267487
0.263019
0.261898
0.261854
0.256079
0.188881
0.127517
0.124956
0.124955
0.124955
0.124955
0.124955
0.124955
0.124955
0.124955
0.124955
0.124955
0.124955
0.124955
0.124955
0.124955
0.124955
)
;

boundaryField
{
    sides
    {
        type            calculated;
        value           nonuniform List<scalar> 2(0.124955 0.999645);
    }
    empty
    {
        type            empty;
    }
}


// ************************************************************************* //
