/*--------------------------------*- C++ -*----------------------------------*\
| =========                 |                                                 |
| \\      /  F ield         | OpenFOAM: The Open Source CFD Toolbox           |
|  \\    /   O peration     | Version:  2512                                  |
|   \\  /    A nd           | Website:  www.openfoam.com                      |
|    \\/     M anipulation  |                                                 |
\*---------------------------------------------------------------------------*/
FoamFile
{
    version     2.0;
    format      ascii;
    arch        "LSB;label=32;scalar=64";
    class       volScalarField;
    location    "0.006";
    object      T;
}
// * * * * * * * * * * * * * * * * * * * * * * * * * * * * * * * * * * * * * //

dimensions      [0 0 0 1 0 0 0];

internalField   nonuniform List<scalar> 
100
(
348.432
348.432
348.432
348.432
348.432
348.432
348.432
348.432
348.432
348.432
348.432
348.432
348.432
348.432
348.432
348.432
348.432
348.432
348.432
348.432
348.432
348.432
348.432
348.432
348.432
348.432
348.425
347.99
344.568
337.8
331.228
325.744
320.87
316.249
311.732
307.27
302.845
298.45
294.078
289.725
285.387
281.061
276.748
272.449
268.168
263.916
259.713
255.609
251.753
248.669
246.847
246.854
247.733
247.51
247.284
247.175
247.084
246.917
246.593
246.433
246.447
246.571
246.999
248.148
251.116
258.647
275.75
308.035
353.126
390.109
401.183
401.747
401.62
401.009
400.533
401.559
402.182
401.571
399.99
397.066
395.861
395.216
390.403
346.999
282.361
278.747
278.746
278.746
278.746
278.746
278.746
278.746
278.746
278.746
278.746
278.746
278.746
278.746
278.746
278.746
)
;

boundaryField
{
    sides
    {
        type            zeroGradient;
    }
    empty
    {
        type            empty;
    }
}


// ************************************************************************* //
