/*--------------------------------*- C++ -*----------------------------------*\
| =========                 |                                                 |
| \\      /  F ield         | OpenFOAM: The Open Source CFD Toolbox           |
|  \\    /   O peration     | Version:  2512                                  |
|   \\  /    A nd           | Website:  www.openfoam.com                      |
|    \\/     M anipulation  |                                                 |
\*---------------------------------------------------------------------------*/
FoamFile
{
    version     2.0;
    format      ascii;
    arch        "LSB;label=32;scalar=64";
    class       volVectorField;
    location    "0.006";
    object      U;
}
// * * * * * * * * * * * * * * * * * * * * * * * * * * * * * * * * * * * * * //

dimensions      [0 1 -1 0 0 0 0];

internalField   nonuniform List<vector> 
100
(
(1.82723e-14 0 0)
(4.99978e-14 0 0)
(1.34981e-15 0 0)
(-1.19304e-14 0 0)
(-8.67147e-15 0 0)
(2.4233e-14 0 0)
(-2.41238e-14 0 0)
(1.16687e-14 0 0)
(5.6742e-14 0 0)
(6.44444e-14 0 0)
(6.52623e-14 0 0)
(2.68457e-14 0 0)
(-1.76573e-14 0 0)
(-2.31334e-14 0 0)
(-2.82969e-14 0 0)
(-6.54579e-14 0 0)
(-4.38348e-15 0 0)
(6.69406e-15 0 0)
(1.82534e-14 0 0)
(7.00512e-14 0 0)
(2.30085e-14 0 0)
(-1.51154e-14 0 0)
(-2.44985e-14 0 0)
(-1.0815e-14 0 0)
(2.82655e-10 0 0)
(1.4016e-05 0 0)
(0.0181599 0 0)
(1.19628 0 0)
(10.4283 0 0)
(28.6395 0 0)
(46.5139 0 0)
(61.5922 0 0)
(75.107 0 0)
(88.018 0 0)
(100.728 0 0)
(113.376 0 0)
(126.009 0 0)
(138.652 0 0)
(151.321 0 0)
(164.032 0 0)
(176.797 0 0)
(189.623 0 0)
(202.513 0 0)
(215.462 0 0)
(228.458 0 0)
(241.471 0 0)
(254.444 0 0)
(267.209 0 0)
(279.263 0 0)
(289.372 0 0)
(294.485 0 0)
(294.647 0 0)
(292.044 0 0)
(292.822 0 0)
(293.633 0 0)
(294.008 0 0)
(293.949 0 0)
(293.732 0 0)
(293.689 0 0)
(293.779 0 0)
(293.764 0 0)
(293.707 0 0)
(293.615 0 0)
(293.624 0 0)
(293.693 0 0)
(293.516 0 0)
(293.571 0 0)
(293.561 0 0)
(295.213 0 0)
(297.397 0 0)
(292.144 0 0)
(289.484 0 0)
(289.391 0 0)
(289.349 0 0)
(290.752 0 0)
(296.21 0 0)
(299.585 0 0)
(299.478 0 0)
(297.082 0 0)
(290.143 0 0)
(288.003 0 0)
(287.435 0 0)
(278.459 0 0)
(163.715 0 0)
(7.95729 0 0)
(0.00290049 0 0)
(6.46717e-09 0 0)
(-2.48709e-14 0 0)
(-7.42632e-15 0 0)
(-1.25296e-13 0 0)
(-1.59121e-13 0 0)
(-9.03992e-14 0 0)
(-1.22578e-13 0 0)
(-2.48474e-13 0 0)
(-1.8202e-13 0 0)
(-1.28131e-13 0 0)
(-1.1199e-13 0 0)
(-8.68373e-14 0 0)
(-1.04092e-13 0 0)
(-2.3946e-13 0 0)
)
;

boundaryField
{
    sides
    {
        type            zeroGradient;
    }
    empty
    {
        type            empty;
    }
}


// ************************************************************************* //
