/*--------------------------------*- C++ -*----------------------------------*\
| =========                 |                                                 |
| \\      /  F ield         | OpenFOAM: The Open Source CFD Toolbox           |
|  \\    /   O peration     | Version:  2512                                  |
|   \\  /    A nd           | Website:  www.openfoam.com                      |
|    \\/     M anipulation  |                                                 |
\*---------------------------------------------------------------------------*/
FoamFile
{
    version     2.0;
    format      ascii;
    arch        "LSB;label=32;scalar=64";
    class       volScalarField;
    location    "0.141";
    object      alphat;
}
// * * * * * * * * * * * * * * * * * * * * * * * * * * * * * * * * * * * * * //

dimensions      [1 -1 -1 0 0 0 0];

internalField   nonuniform List<scalar> 
16000
(
6.1507824e-07
1.2060046e-05
2.1832902e-05
2.5144828e-05
2.0086768e-05
2.7336549e-05
1.9385242e-05
2.6711978e-05
2.073845e-05
2.8870986e-05
2.4130141e-05
2.8516347e-05
2.5888701e-05
2.660323e-05
2.5669193e-05
2.5519593e-05
2.5244172e-05
2.5170054e-05
2.5183571e-05
2.5307406e-05
2.5533318e-05
2.5860082e-05
2.6285019e-05
2.6808261e-05
2.7432117e-05
2.8163203e-05
2.9010389e-05
2.9987819e-05
3.1112801e-05
3.2404031e-05
3.3882044e-05
3.557412e-05
3.7515489e-05
3.9749594e-05
4.232996e-05
4.5320528e-05
4.879758e-05
5.2852181e-05
5.7597148e-05
6.3172455e-05
6.974267e-05
7.7501808e-05
8.6694633e-05
9.7621363e-05
0.00011063988
0.0001261799
0.00014477473
0.00016707494
0.00019387355
0.00022613793
0.00026505317
0.00031207454
0.00036898361
0.00043796668
0.00052170794
0.00062351754
0.00074749347
0.00089873301
0.0010836144
0.0011795406
0.00118035
0.0011810642
0.0011816762
0.0011821505
0.0011824837
0.0011826641
0.0011826821
0.0011825294
0.0011821967
0.0011816681
0.0011809083
0.0011798364
0.0011783997
0.0011770289
0.001175829
0.0011746924
0.0011735903
0.0011730251
0.0011724842
0.0011729389
5.3305864e-07
1.1398489e-05
2.1055119e-05
2.2741174e-05
1.8108659e-05
2.4474243e-05
1.7196467e-05
2.334564e-05
1.8317108e-05
2.5446159e-05
2.1836716e-05
2.5676446e-05
2.3657879e-05
2.4080867e-05
2.3353311e-05
2.3148088e-05
2.2920872e-05
2.2843605e-05
2.2860443e-05
2.2975261e-05
2.3185598e-05
2.3489804e-05
2.3885814e-05
2.4373866e-05
2.4955715e-05
2.5637534e-05
2.6427028e-05
2.7336938e-05
2.8383634e-05
2.9585346e-05
3.0961207e-05
3.253617e-05
3.4342871e-05
3.6421562e-05
3.8822349e-05
4.1605383e-05
4.48429e-05
4.862053e-05
5.3043426e-05
5.8244154e-05
6.4380932e-05
7.1636573e-05
8.0241739e-05
9.0482816e-05
0.00010270373
0.00011731327
0.00013482051
0.00015584864
0.00018115911
0.00021168151
0.00024855515
0.00029318297
0.00034728496
0.00041297609
0.00049285552
0.00059013155
0.0007087801
0.0008537417
0.0010311822
0.0011790731
0.001179879
0.0011805466
0.0011811212
0.0011815613
0.0011818632
0.0011820153
0.0011820073
0.0011818306
0.0011814757
0.0011809272
0.0011801568
0.0011790959
0.0011776829
0.0011763664
0.0011752168
0.0011741205
0.0011730848
0.0011723735
0.0011721511
0.00117277
4.5909323e-07
1.0893462e-05
1.9907507e-05
2.0822179e-05
1.621509e-05
2.1552623e-05
1.5297945e-05
2.0270054e-05
1.6454434e-05
2.2292261e-05
1.9890505e-05
2.2830843e-05
2.1409349e-05
2.1540612e-05
2.0983354e-05
2.0756534e-05
2.056819e-05
2.0499076e-05
2.0521403e-05
2.0631923e-05
2.082979e-05
2.1113767e-05
2.1482108e-05
2.1935374e-05
2.247495e-05
2.3106803e-05
2.3837865e-05
2.4679713e-05
2.5647627e-05
2.6759392e-05
2.8033208e-05
2.9492197e-05
3.1166854e-05
3.3094693e-05
3.5322794e-05
3.7907835e-05
4.091848e-05
4.4436112e-05
4.8559472e-05
5.3413759e-05
5.9151999e-05
6.5948414e-05
7.4021636e-05
8.3645185e-05
9.5151904e-05
0.00010893363
0.00012547913
0.00014538865
0.00016939726
0.00019840378
0.00023350946
0.00027607366
0.00032776476
0.00039063811
0.00046722179
0.00056063812
0.00067475958
0.00081440164
0.00098556401
0.0011787598
0.001179552
0.0011801573
0.0011806763
0.0011810648
0.0011813187
0.0011814265
0.0011813775
0.0011811625
0.0011807722
0.001180191
0.0011793942
0.001178328
0.0011769343
0.0011756808
0.0011745881
0.0011735488
0.0011725511
0.0011717898
0.0011716609
0.0011720105
4.186472e-07
1.0518489e-05
1.889604e-05
1.9923249e-05
1.4601398e-05
1.9028041e-05
1.3624202e-05
1.7696385e-05
1.4801269e-05
1.9620081e-05
1.8145843e-05
2.0319983e-05
1.9344721e-05
1.9264063e-05
1.8835145e-05
1.860944e-05
1.8455016e-05
1.8398895e-05
1.8428774e-05
1.8537889e-05
1.8726207e-05
1.8993065e-05
1.9337105e-05
1.9759378e-05
2.0261066e-05
2.0848096e-05
2.1526901e-05
2.2308151e-05
2.3206093e-05
2.423815e-05
2.5421915e-05
2.677896e-05
2.8338057e-05
3.0134378e-05
3.2212469e-05
3.4626035e-05
3.7440685e-05
4.0734508e-05
4.4601202e-05
4.9159164e-05
5.4557503e-05
6.0964013e-05
6.8587767e-05
7.7690967e-05
8.8598574e-05
0.00010168951
0.00011743662
0.00013642247
0.00015936198
0.00018713159
0.00022080382
0.00026170638
0.00031147002
0.00037210777
0.00044609809
0.00053650356
0.00064712449
0.00078269159
0.0009491003
0.001153689
0.0011794367
0.001179963
0.0011804085
0.0011807285
0.0011809186
0.0011809672
0.0011808632
0.0011805968
0.0011801589
0.0011795336
0.0011786982
0.0011776155
0.0011762313
0.0011750373
0.0011739997
0.0011730154
0.0011720468
0.001171265
0.001171203
0.0011712672
3.6062435e-07
1.0246348e-05
1.8048487e-05
1.9985611e-05
1.4418866e-05
1.682517e-05
1.2161937e-05
1.5493961e-05
1.3385646e-05
1.7329151e-05
1.6605109e-05
1.8070305e-05
1.7429097e-05
1.7204649e-05
1.6869905e-05
1.6659423e-05
1.6531787e-05
1.6488005e-05
1.6523004e-05
1.6629236e-05
1.6807032e-05
1.7056471e-05
1.7376623e-05
1.7769072e-05
1.8234947e-05
1.8780183e-05
1.9410832e-05
2.0136853e-05
2.0971465e-05
2.1931678e-05
2.3034695e-05
2.4300808e-05
2.5757372e-05
2.7437553e-05
2.9383736e-05
3.1647069e-05
3.4290459e-05
3.7389371e-05
4.1033779e-05
4.5335676e-05
5.0440947e-05
5.6512659e-05
6.3752531e-05
7.2412243e-05
8.2810918e-05
9.5317571e-05
0.00011039204
0.0001286026
0.00015064765
0.00017738647
0.00020986823
0.00024939566
0.00029756919
0.00035636827
0.00042823228
0.00051617654
0.00062394397
0.00075619715
0.00091874937
0.0011188296
0.0011794945
0.001179928
0.0011802838
0.0011805204
0.0011806324
0.0011806085
0.0011804369
0.0011801073
0.0011796107
0.0011789316
0.0011780461
0.0011769357
0.0011755691
0.0011744328
0.0011734495
0.0011725187
0.0011715789
0.0011707942
0.0011706863
0.0011705781
3.2183523e-07
1.0062757e-05
1.7367094e-05
1.9673426e-05
1.4194214e-05
1.4912669e-05
1.1544634e-05
1.3676803e-05
1.2605114e-05
1.5455714e-05
1.5265698e-05
1.6102117e-05
1.5682559e-05
1.5372241e-05
1.509624e-05
1.4902764e-05
1.4792305e-05
1.4756333e-05
1.4792752e-05
1.4894184e-05
1.5060946e-05
1.5293711e-05
1.5591818e-05
1.5957138e-05
1.6390967e-05
1.6899163e-05
1.7487431e-05
1.8165243e-05
1.8944821e-05
1.9842743e-05
2.087602e-05
2.2063928e-05
2.3432726e-05
2.5013943e-05
2.6848225e-05
2.8984647e-05
3.1483888e-05
3.4419389e-05
3.7878834e-05
4.1968772e-05
4.6832227e-05
5.262931e-05
5.9557164e-05
6.7858048e-05
7.7847481e-05
8.9888071e-05
0.00010443017
0.00012203203
0.00014337996
0.00016932264
0.00020089282
0.00023937691
0.00028635514
0.00034378514
0.0004140821
0.00050023169
0.00060594038
0.00073582708
0.00089565484
0.0010925876
0.0011797195
0.0011800468
0.0011802986
0.0011804382
0.0011804592
0.0011803508
0.0011801005
0.0011796972
0.0011791319
0.0011783904
0.0011774459
0.0011762946
0.0011749597
0.0011738792
0.0011729484
0.001172069
0.0011711605
0.0011703744
0.0011702069
0.0011699539
2.9840612e-07
9.9533111e-06
1.6832786e-05
1.855377e-05
1.4011347e-05
1.3166694e-05
1.1531617e-05
1.2582351e-05
1.2076239e-05
1.3736472e-05
1.4050431e-05
1.4360128e-05
1.405597e-05
1.3709258e-05
1.3467842e-05
1.3292843e-05
1.3196252e-05
1.3167835e-05
1.320621e-05
1.3304577e-05
1.3462833e-05
1.3682188e-05
1.3962213e-05
1.4220367e-05
1.4616981e-05
1.5084858e-05
1.5629078e-05
1.625827e-05
1.6983521e-05
1.7820615e-05
1.8786347e-05
1.9899015e-05
2.1183886e-05
2.2670943e-05
2.4399252e-05
2.6416016e-05
2.8779853e-05
3.1562236e-05
3.4849431e-05
3.9035973e-05
4.3706713e-05
4.9286431e-05
5.5970487e-05
6.3993146e-05
7.3667607e-05
8.535348e-05
9.9494999e-05
0.00011664435
0.0001374794
0.00016284443
0.00019376185
0.00023150962
0.0002776567
0.00033414932
0.00040339135
0.00048835442
0.00059272675
0.0007211045
0.00087922637
0.0010742277
0.0011800897
0.0011802993
0.0011804349
0.0011804659
0.0011803853
0.0011801822
0.0011798439
0.0011793583
0.0011787157
0.0011779046
0.0011768962
0.0011756888
0.0011744105
0.0011733844
0.0011725036
0.0011716744
0.0011708012
0.0011700079
0.0011697558
0.0011694051
2.6406457e-07
9.8897179e-06
1.6370901e-05
1.6825479e-05
1.2562941e-05
1.1464697e-05
9.7302465e-06
1.1178445e-05
1.0225231e-05
1.2374432e-05
1.282173e-05
1.2757674e-05
1.2503387e-05
1.2167364e-05
1.1955486e-05
1.180455e-05
1.1724785e-05
1.1707285e-05
1.1679458e-05
1.176079e-05
1.1901623e-05
1.2102279e-05
1.2360984e-05
1.267762e-05
1.3057091e-05
1.3503091e-05
1.4020882e-05
1.4619069e-05
1.5308164e-05
1.6103516e-05
1.7022187e-05
1.8081991e-05
1.9307772e-05
2.0728584e-05
2.2382618e-05
2.4315949e-05
2.6586015e-05
2.9263143e-05
3.2433206e-05
3.6200846e-05
4.0693695e-05
4.6073411e-05
5.2535672e-05
6.0816934e-05
7.027164e-05
8.1715326e-05
9.5589908e-05
0.00011244532
0.00013295494
0.00015796515
0.00018849458
0.00022582102
0.00027151201
0.00032751357
0.00039623216
0.00048064231
0.00058443408
0.00071220414
0.0008696939
0.0010640476
0.0011805843
0.0011806667
0.0011806763
0.0011805896
0.0011803986
0.0011800927
0.0011796591
0.0011790845
0.0011783578
0.0011774706
0.0011763983
0.0011751237
0.0011739283
0.0011729557
0.0011721225
0.0011713427
0.0011705088
0.0011697034
0.001169357
0.0011688458
2.3698696e-07
9.8499026e-06
1.5877527e-05
1.473095e-05
1.0291428e-05
1.0213367e-05
8.0486869e-06
9.6002231e-06
9.7654586e-06
1.1090389e-05
1.1585973e-05
1.12763e-05
1.1048153e-05
1.0748154e-05
1.0565032e-05
1.0366746e-05
1.0277757e-05
1.0256109e-05
1.0294469e-05
1.0389505e-05
1.0536119e-05
1.0737874e-05
1.0992304e-05
1.1300161e-05
1.1666254e-05
1.2095182e-05
1.2592317e-05
1.3166335e-05
1.3827388e-05
1.4590386e-05
1.5472783e-05
1.6492181e-05
1.7673326e-05
1.9044657e-05
2.0643866e-05
2.2516392e-05
2.471901e-05
2.7321487e-05
3.0409159e-05
3.4085939e-05
3.8480067e-05
4.3751142e-05
5.0098266e-05
5.7752599e-05
6.701042e-05
7.8240473e-05
9.2697692e-05
0.00010941563
0.00012978508
0.00015466081
0.00018506452
0.00022228223
0.00026789001
0.00032384515
0.00039257072
0.0004770616
0.00058103036
0.00070909818
0.00086703594
0.0010620323
0.0011811783
0.0011811262
0.0011810028
0.0011807916
0.0011804841
0.0011800696
0.0011795354
0.0011788672
0.0011780522
0.0011770827
0.0011759502
0.0011746379
0.0011735181
0.001172599
0.0011718111
0.0011710798
0.0011702885
0.0011694644
0.001169022
0.0011683896
2.1877049e-07
9.8051617e-06
1.4060185e-05
1.2878526e-05
8.3200748e-06
9.0922405e-06
7.2942386e-06
8.6469483e-06
9.0459868e-06
9.9233788e-06
1.0367135e-05
9.933752e-06
9.715691e-06
9.3654857e-06
9.1735218e-06
9.0524956e-06
8.9994283e-06
9.0048329e-06
9.0613139e-06
9.1696167e-06
9.3237948e-06
9.5260707e-06
9.7780549e-06
1.0079858e-05
1.0436587e-05
1.0853327e-05
1.1335651e-05
1.1892468e-05
1.2533733e-05
1.3273964e-05
1.4131069e-05
1.5122768e-05
1.6273948e-05
1.7612716e-05
1.9176608e-05
2.1010857e-05
2.3172059e-05
2.5730015e-05
2.8770566e-05
3.2398286e-05
3.6741746e-05
4.1960366e-05
4.8257174e-05
5.5863801e-05
6.5079612e-05
7.6276209e-05
8.991198e-05
0.00010652551
0.00012795931
0.00015292215
0.00018346504
0.00022089046
0.00026679375
0.00032315557
0.00039243049
0.00047765215
0.00058257782
0.00071187952
0.00087138618
0.001068365
0.0011818453
0.0011816538
0.0011813933
0.0011810537
0.0011806259
0.0011800994
0.0011794613
0.0011786971
0.0011777923
0.0011767369
0.0011755414
0.0011742333
0.0011731847
0.0011723186
0.0011715744
0.0011708899
0.0011701436
0.0011692977
0.0011687666
0.0011682137
1.9924891e-07
9.7546488e-06
1.1151834e-05
1.0593518e-05
6.8905384e-06
8.0984011e-06
6.662544e-06
7.7740766e-06
8.4690553e-06
8.8610897e-06
9.1726165e-06
8.6221845e-06
8.3553216e-06
8.1121454e-06
7.9709939e-06
7.8918165e-06
7.8687868e-06
7.898481e-06
7.9728153e-06
8.0912842e-06
8.2523995e-06
8.4579233e-06
8.7098968e-06
9.0090954e-06
9.3607595e-06
9.7705015e-06
1.0244247e-05
1.0791196e-05
1.1421319e-05
1.2148803e-05
1.2925464e-05
1.3891109e-05
1.5014653e-05
1.632382e-05
1.7855958e-05
1.9656123e-05
2.1780803e-05
2.4299893e-05
2.7299883e-05
3.0886328e-05
3.5189297e-05
4.0686569e-05
4.6997926e-05
5.4635025e-05
6.3900487e-05
7.5170207e-05
8.8915911e-05
0.00010568924
0.00012618591
0.00015127337
0.00018368067
0.00022163357
0.00026821616
0.00032544512
0.00039582219
0.00048243947
0.00058912243
0.00072062259
0.00088285837
0.0010832086
0.001182558
0.0011822246
0.0011818259
0.0011813565
0.0011808071
0.0011801674
0.0011794246
0.0011785638
0.0011775702
0.0011764306
0.0011751637
0.0011739132
0.0011729304
0.0011721169
0.0011714163
0.0011707753
0.0011700754
0.0011692288
0.0011686233
0.0011681367
1.835144e-07
9.7064381e-06
8.808594e-06
9.0261939e-06
6.1771905e-06
7.1819785e-06
6.1219884e-06
7.0153902e-06
7.8830535e-06
7.8729108e-06
7.8768858e-06
7.4079035e-06
7.1909307e-06
7.0130308e-06
6.9152526e-06
6.8713833e-06
6.8763222e-06
6.9253309e-06
7.0151e-06
7.1453807e-06
7.3147045e-06
7.5252989e-06
7.7801708e-06
8.0806407e-06
8.4320986e-06
8.802615e-06
9.266522e-06
9.8032981e-06
1.0422782e-05
1.1138691e-05
1.1967532e-05
1.2930754e-05
1.4052594e-05
1.536092e-05
1.6893531e-05
1.869608e-05
2.082591e-05
2.335404e-05
2.6368919e-05
2.99786e-05
3.4316531e-05
3.9549506e-05
4.588197e-05
5.355921e-05
6.2889347e-05
7.4900932e-05
8.8886055e-05
0.00010597188
0.00012686702
0.00015246616
0.00018386269
0.00022449967
0.00027215228
0.00033071854
0.0004027638
0.00049145983
0.00060072554
0.00073542333
0.00090159736
0.0011067702
0.001183289
0.0011828137
0.0011822784
0.0011816804
0.0011810106
0.0011802587
0.0011794125
0.0011784564
0.0011773761
0.0011761626
0.0011748262
0.0011736772
0.0011727561
0.0011719947
0.0011713393
0.0011707377
0.0011700753
0.0011692486
0.001168617
0.001168183
1.6962618e-07
9.6348938e-06
7.0170483e-06
7.9414155e-06
5.5157831e-06
6.3634859e-06
5.6581013e-06
6.3426994e-06
7.1826527e-06
6.7507473e-06
6.7078207e-06
6.3473284e-06
6.1763954e-06
6.0516624e-06
5.9913474e-06
5.9779939e-06
6.0068956e-06
6.0755256e-06
6.1807385e-06
6.3232615e-06
6.5025789e-06
6.7210608e-06
6.9527422e-06
7.2521981e-06
7.6025846e-06
8.0088911e-06
8.4793778e-06
9.0228989e-06
9.6495292e-06
1.0373221e-05
1.1210674e-05
1.2183125e-05
1.3316284e-05
1.4638509e-05
1.6188356e-05
1.8012503e-05
2.0169771e-05
2.2732885e-05
2.5793069e-05
2.9462039e-05
3.3876845e-05
3.9208308e-05
4.5671618e-05
5.3518548e-05
6.3067193e-05
7.4713267e-05
8.8948454e-05
0.00010636734
0.00012882702
0.00015515874
0.00018747218
0.0002271635
0.00027858749
0.00033897057
0.0004132624
0.00050473759
0.00061743575
0.00075636341
0.00092773386
0.0011392491
0.0011840122
0.0011833973
0.0011827294
0.0011820065
0.0011812198
0.0011803589
0.0011794123
0.0011783648
0.0011772003
0.0011759261
0.0011745941
0.0011735232
0.0011726608
0.0011719508
0.0011713435
0.0011707784
0.0011701434
0.0011693621
0.0011687663
0.0011683787
1.5741351e-07
9.5087016e-06
5.6437564e-06
6.9596336e-06
4.9235965e-06
5.6353516e-06
5.2662958e-06
5.6561867e-06
6.2992387e-06
5.7775985e-06
5.6840915e-06
5.4219865e-06
5.2943513e-06
5.2141225e-06
5.1870917e-06
5.2013646e-06
5.2529421e-06
5.3404022e-06
5.4616724e-06
5.5969333e-06
5.7819499e-06
6.0063281e-06
6.272866e-06
6.5851457e-06
6.9482333e-06
7.3675189e-06
7.8511519e-06
8.408681e-06
9.0504289e-06
9.7905517e-06
1.0645928e-05
1.1638118e-05
1.2735721e-05
1.4071952e-05
1.5638943e-05
1.7484369e-05
1.966876e-05
2.2266601e-05
2.5371931e-05
2.9100699e-05
3.35947e-05
3.9326318e-05
4.5979332e-05
5.4067435e-05
6.3919937e-05
7.5944212e-05
9.065576e-05
0.00010867572
0.00013076491
0.00015931674
0.00019281533
0.00023397953
0.00028459039
0.00035017881
0.00042730629
0.00052227546
0.00063927766
0.0007834972
0.0009613667
0.001180817
0.0011847031
0.0011839537
0.0011831595
0.0011823173
0.0011814189
0.001180454
0.0011794116
0.001178279
0.0011770385
0.001175701
0.0011744504
0.0011734511
0.0011726425
0.0011719823
0.0011714267
0.0011708965
0.0011702754
0.0011695585
0.00116907
0.0011687299
1.4669396e-07
9.2934916e-06
4.6115915e-06
6.0833157e-06
4.3949559e-06
4.9900274e-06
4.9266451e-06
4.9092738e-06
5.4087806e-06
4.9124239e-06
4.7994802e-06
4.6184581e-06
4.5317296e-06
4.4899103e-06
4.4931554e-06
4.5331302e-06
4.6066898e-06
4.6946073e-06
4.8268678e-06
4.9943113e-06
5.1981299e-06
5.4402428e-06
5.7241758e-06
6.05369e-06
6.4344506e-06
6.8721134e-06
7.3748926e-06
7.9290178e-06
8.586125e-06
9.3425884e-06
1.0215389e-05
1.122618e-05
1.2401471e-05
1.3774597e-05
1.5385371e-05
1.7283139e-05
1.9531287e-05
2.2207234e-05
2.5408896e-05
2.9258242e-05
3.3903735e-05
3.9532446e-05
4.6370679e-05
5.4697248e-05
6.4855741e-05
7.7917702e-05
9.3227751e-05
0.0001119935
0.00013501327
0.00016327174
0.00019984219
0.00024280057
0.00029563495
0.00036063398
0.00044484629
0.00054403235
0.0006662244
0.00081681926
0.0010025199
0.0011861973
0.0011853401
0.001184464
0.0011835516
0.0011825973
0.0011815941
0.001180532
0.0011793994
0.0011781873
0.0011768901
0.0011755256
0.0011743892
0.0011734574
0.0011726982
0.0011720855
0.0011715825
0.001171088
0.001170472
0.0011698221
0.0011694852
0.0011691601
1.3736565e-07
8.9913482e-06
3.9633849e-06
5.3052617e-06
3.9254568e-06
4.4194436e-06
4.3871222e-06
4.2347716e-06
4.550547e-06
4.1494145e-06
4.0431093e-06
3.9267712e-06
3.8783858e-06
3.8707111e-06
3.9020762e-06
3.9520773e-06
4.0405059e-06
4.1628858e-06
4.3185322e-06
4.5078955e-06
4.7328019e-06
4.9956937e-06
5.3005209e-06
5.6513309e-06
6.0405391e-06
6.4969033e-06
7.0189335e-06
7.6161669e-06
8.3006102e-06
9.0865924e-06
9.9915902e-06
1.1038202e-05
1.2254098e-05
1.3673966e-05
1.5340447e-05
1.7304801e-05
1.9633917e-05
2.2408984e-05
2.5732088e-05
2.9732602e-05
3.4565096e-05
4.0426244e-05
4.7557264e-05
5.6249662e-05
6.686662e-05
7.9853782e-05
9.6610038e-05
0.00011626547
0.00014038556
0.00017001515
0.00020641276
0.00025354378
0.00030898313
0.00037720595
0.00046117153
0.00056989386
0.00069816217
0.00085622333
0.0010510922
0.0011868741
0.0011859047
0.0011849129
0.0011838916
0.001182834
0.0011817338
0.0011805824
0.0011793681
0.0011780819
0.0011767397
0.0011754461
0.0011744013
0.0011735364
0.0011728246
0.0011722563
0.0011718023
0.0011713433
0.0011707367
0.0011701512
0.0011699735
0.0011697425
1.2947031e-07
8.1171719e-06
3.4957461e-06
4.6103288e-06
3.5098172e-06
3.7494508e-06
3.911931e-06
3.6170033e-06
3.7732611e-06
3.4872471e-06
3.4038552e-06
3.3390572e-06
3.3260599e-06
3.3496165e-06
3.3905907e-06
3.4742968e-06
3.5907552e-06
3.7387742e-06
3.9185963e-06
4.1314187e-06
4.3796256e-06
4.6659364e-06
4.9851744e-06
5.3573886e-06
5.7817313e-06
6.2648884e-06
6.8149148e-06
7.4417161e-06
8.1575794e-06
8.9777786e-06
9.9203925e-06
1.1009036e-05
1.2272697e-05
1.3747866e-05
1.5413583e-05
1.7439931e-05
1.9844702e-05
2.2713432e-05
2.6310121e-05
3.0489993e-05
3.5544515e-05
4.1679885e-05
4.9153527e-05
5.8272765e-05
6.9419474e-05
8.3066399e-05
9.9793509e-05
0.00012031254
0.0001467976
0.00017799408
0.00021633162
0.00026346711
0.0003244872
0.00039638269
0.0004848802
0.00059963685
0.00073484472
0.00090144857
0.0011068122
0.0011874589
0.0011863853
0.0011852891
0.0011841692
0.0011830182
0.0011818296
0.0011805966
0.0011793111
0.0011779668
0.0011765926
0.0011754386
0.0011744795
0.0011736803
0.0011730167
0.0011724901
0.0011720775
0.0011716497
0.0011710661
0.0011705565
0.0011705292
0.001170453
1.2325625e-07
5.9202792e-06
3.0973085e-06
3.98134e-06
3.1513214e-06
3.1306645e-06
3.4371317e-06
3.0567843e-06
3.1049077e-06
2.9220416e-06
2.869711e-06
2.8475815e-06
2.8588625e-06
2.9034721e-06
2.9847298e-06
3.0981928e-06
3.2418214e-06
3.4154882e-06
3.6202258e-06
3.8576916e-06
4.1247245e-06
4.4341046e-06
4.786003e-06
5.185179e-06
5.6373336e-06
6.1493973e-06
6.729815e-06
7.3889024e-06
8.1393619e-06
8.9774329e-06
9.9552526e-06
1.1082736e-05
1.2390101e-05
1.3915205e-05
1.5705392e-05
1.7819839e-05
2.0331696e-05
2.3332506e-05
2.6935826e-05
3.1281921e-05
3.6544912e-05
4.3248448e-05
5.110893e-05
6.0710147e-05
7.2453904e-05
8.6839654e-05
0.00010448165
0.00012613597
0.00015413393
0.00018707525
0.00022757184
0.00027737168
0.00034192453
0.00041790381
0.00051144951
0.00062665586
0.0007758513
0.00095202174
0.0011691572
0.0011879449
0.0011867749
0.0011855858
0.0011843779
0.0011831441
0.001181877
0.0011805705
0.0011792218
0.0011778435
0.0011765434
0.0011754899
0.0011746133
0.0011738788
0.001173267
0.0011727813
0.001172401
0.001171997
0.0011714505
0.0011710138
0.0011711265
0.0011711215
1.1838482e-07
4.4299518e-06
2.7407464e-06
3.3994934e-06
2.6940818e-06
2.6106111e-06
2.9360314e-06
2.557788e-06
2.5493868e-06
2.4478386e-06
2.4306134e-06
2.4380015e-06
2.4821292e-06
2.5625546e-06
2.6747689e-06
2.8161724e-06
2.9860358e-06
3.1849674e-06
3.4113873e-06
3.6723368e-06
3.9690149e-06
4.3047608e-06
4.6836467e-06
5.1106356e-06
5.5917242e-06
6.1341516e-06
6.7467174e-06
7.4290162e-06
8.2122346e-06
9.1050739e-06
1.0127967e-05
1.1306299e-05
1.2672064e-05
1.4265432e-05
1.6136754e-05
1.8348761e-05
2.0979398e-05
2.4125612e-05
2.7907977e-05
3.2476061e-05
3.8015143e-05
4.4753616e-05
5.3367961e-05
6.3497029e-05
7.5894543e-05
9.1088698e-05
0.00010972968
0.0001326193
0.000160746
0.00019708008
0.00023992175
0.00029261896
0.00035746678
0.00044139903
0.00054043423
0.00066242375
0.00082054582
0.0010071992
0.0011895948
0.0011883294
0.0011870722
0.0011858017
0.0011845157
0.0011832093
0.0011818748
0.0011805059
0.0011791073
0.001177717
0.0011765579
0.0011755941
0.0011747924
0.0011741201
0.0011735646
0.0011731217
0.0011727664
0.0011723765
0.0011718766
0.00117154
0.0011717422
0.0011718429
1.1323163e-07
3.9439269e-06
2.3612917e-06
2.8613427e-06
2.3211085e-06
2.1754195e-06
2.4187826e-06
2.1215388e-06
2.100271e-06
2.0613738e-06
2.0748925e-06
2.1183422e-06
2.1996565e-06
2.3117139e-06
2.4518115e-06
2.6189482e-06
2.8134074e-06
3.0341885e-06
3.2868834e-06
3.5727992e-06
3.8949033e-06
4.2568006e-06
4.6628104e-06
5.1180998e-06
5.628884e-06
6.2026762e-06
6.8410327e-06
7.5670151e-06
8.3893137e-06
9.3250548e-06
1.0395787e-05
1.162841e-05
1.3056756e-05
1.4723346e-05
1.668168e-05
1.8998717e-05
2.1757551e-05
2.5061124e-05
2.9037417e-05
3.3844556e-05
3.9678764e-05
4.7121163e-05
5.5865666e-05
6.6557138e-05
7.9650976e-05
9.5705559e-05
0.00011540871
0.00013960851
0.00017091971
0.000207778
0.00025310189
0.00030886694
0.00037750616
0.00046636702
0.00057123608
0.00070044834
0.00086802915
0.0010658961
0.0011899451
0.001188613
0.0011872806
0.0011859398
0.0011845858
0.0011832156
0.0011818241
0.0011804053
0.0011789764
0.0011776812
0.0011766208
0.001175741
0.0011750079
0.0011743935
0.0011738934
0.001173498
0.0011731655
0.0011727864
0.0011723366
0.0011721137
0.0011723905
0.0011724875
1.0980254e-07
3.4335697e-06
2.0354645e-06
2.313976e-06
2.0157394e-06
1.8042161e-06
1.9397833e-06
1.7540683e-06
1.7502664e-06
1.7614745e-06
1.8061911e-06
1.888236e-06
2.000812e-06
2.1398717e-06
2.3043421e-06
2.494465e-06
2.7101484e-06
2.9550662e-06
3.2310552e-06
3.5408415e-06
3.8876899e-06
4.2754242e-06
4.7085311e-06
5.1923274e-06
5.7331968e-06
6.3345686e-06
7.0123444e-06
7.7753503e-06
8.6378967e-06
9.6179473e-06
1.0738308e-05
1.202747e-05
1.3521294e-05
1.5264787e-05
1.7314531e-05
1.9741648e-05
2.2635001e-05
2.6103627e-05
3.0283633e-05
3.5342505e-05
4.1760721e-05
4.9308843e-05
5.8524768e-05
6.9800089e-05
8.3614821e-05
0.00010056014
0.0001213631
0.00014692069
0.0001799456
0.00021887405
0.00026675806
0.00032568715
0.00039824253
0.00049214113
0.00060304952
0.00073975704
0.00091709893
0.0011266521
0.0011901975
0.0011888042
0.0011874077
0.0011860075
0.0011845961
0.0011831698
0.0011817296
0.0011802837
0.0011788668
0.0011777006
0.0011767264
0.0011759193
0.0011752496
0.0011746951
0.001174241
0.0011738925
0.0011735834
0.00117322
0.0011728239
0.0011727027
0.0011730381
0.0011731119
1.0836671e-07
2.9010013e-06
1.7540042e-06
1.7870225e-06
1.7371019e-06
1.488206e-06
1.5499539e-06
1.4630586e-06
1.4912502e-06
1.5381346e-06
1.6217527e-06
1.7342082e-06
1.8719445e-06
2.0333677e-06
2.218756e-06
2.4292788e-06
2.6659092e-06
2.9321738e-06
3.230207e-06
3.5630018e-06
3.9339968e-06
4.347158e-06
4.8070955e-06
5.3192447e-06
5.8901167e-06
6.5276394e-06
7.2415989e-06
8.0441713e-06
8.9403059e-06
9.9652261e-06
1.1135945e-05
1.2482643e-05
1.4043349e-05
1.5865781e-05
1.8009647e-05
2.0633304e-05
2.3686889e-05
2.7351173e-05
3.1771103e-05
3.7125403e-05
4.3634104e-05
5.1567694e-05
6.1260244e-05
7.3122879e-05
8.7661872e-05
0.00010550113
0.00012740825
0.00015567723
0.00018901848
0.00023001661
0.00028045841
0.0003425506
0.00042298776
0.00051789781
0.00063486845
0.00077912495
0.00096622827
0.0011876064
0.0011903679
0.0011889184
0.0011874661
0.0011860147
0.0011845572
0.0011830867
0.0011816012
0.0011801308
0.0011788362
0.0011777622
0.0011768673
0.0011761217
0.0011755028
0.001175004
0.001174599
0.0011742882
0.0011740038
0.0011736673
0.0011733329
0.0011732893
0.0011736459
0.0011736923
1.0999351e-07
2.369539e-06
1.520082e-06
1.3824455e-06
1.4562087e-06
1.2244736e-06
1.2653054e-06
1.25048e-06
1.3117587e-06
1.3930038e-06
1.5048137e-06
1.6402199e-06
1.7979061e-06
1.9780009e-06
2.181729e-06
2.4108408e-06
2.667109e-06
2.9535737e-06
3.2727792e-06
3.6278499e-06
4.0223255e-06
4.4602638e-06
4.9463755e-06
5.4862144e-06
6.0864416e-06
6.7551821e-06
7.5025013e-06
8.3409987e-06
9.286547e-06
1.0359226e-05
1.1584421e-05
1.2994278e-05
1.4629293e-05
1.6540366e-05
1.8791187e-05
2.1461163e-05
2.464905e-05
2.8477645e-05
3.3098818e-05
3.8700465e-05
4.5514543e-05
5.3826258e-05
6.3984261e-05
7.6420352e-05
9.1664801e-05
0.0001112849
0.00013443148
0.00016286591
0.00019781967
0.00024081368
0.00029372441
0.00036223961
0.00044307954
0.00054269333
0.00066552927
0.00082505011
0.0010136033
0.0011919977
0.0011904748
0.0011889756
0.0011874758
0.0011859774
0.0011844786
0.0011829792
0.0011814836
0.0011800301
0.0011788495
0.0011778581
0.0011770341
0.0011763472
0.0011757769
0.0011753146
0.0011749557
0.0011746747
0.0011744126
0.0011741115
0.001173847
0.0011738689
0.0011742256
0.0011742489
1.1590203e-07
1.8747146e-06
1.3323208e-06
1.0876629e-06
1.3029897e-06
1.0047184e-06
1.0719518e-06
1.109377e-06
1.1971984e-06
1.3056132e-06
1.4378433e-06
1.5908505e-06
1.7650399e-06
1.9615518e-06
2.1821017e-06
2.4286987e-06
2.703629e-06
3.0092633e-06
3.348707e-06
3.7250533e-06
4.141916e-06
4.603437e-06
5.1144288e-06
5.6805737e-06
6.3086983e-06
7.0071441e-06
7.7862668e-06
8.6591164e-06
9.6421849e-06
1.0756428e-05
1.2028364e-05
1.349166e-05
1.5188766e-05
1.7173067e-05
1.9511373e-05
2.2287007e-05
2.5603487e-05
2.9589064e-05
3.440226e-05
4.0238714e-05
4.7662834e-05
5.6395954e-05
6.7068043e-05
8.0131725e-05
9.6143182e-05
0.00011578736
0.00013990854
0.0001695478
0.00020598587
0.00025315512
0.00030874129
0.00037717386
0.00046147902
0.0005654133
0.00070041259
0.00085991835
0.0010569903
0.001192084
0.0011905302
0.0011889949
0.00118746
0.0011859238
0.0011843836
0.0011828441
0.0011813365
0.0011800022
0.0011788974
0.001177977
0.0011772122
0.0011765774
0.0011760528
0.0011756255
0.0011753022
0.0011750451
0.0011748027
0.0011745407
0.0011743469
0.0011744231
0.0011747596
0.0011747442
1.2682781e-07
1.4998462e-06
1.1736029e-06
9.4107146e-07
9.5549856e-07
8.8078193e-07
9.4329736e-07
1.0230025e-06
1.1310216e-06
1.2584234e-06
1.4060209e-06
1.5736121e-06
1.7624216e-06
1.9739717e-06
2.2101201e-06
2.4729407e-06
2.7647548e-06
3.08815e-06
3.4460271e-06
3.8416533e-06
4.2787405e-06
4.7615515e-06
5.2950493e-06
5.8851093e-06
6.538814e-06
7.2622567e-06
8.0699316e-06
8.9736828e-06
9.9995589e-06
1.1155365e-05
1.2474951e-05
1.3993642e-05
1.5755937e-05
1.7817723e-05
2.0248881e-05
2.3136442e-05
2.6588432e-05
3.0738584e-05
3.5752072e-05
4.1832624e-05
4.923126e-05
5.8257091e-05
6.9290419e-05
8.2797042e-05
9.935255e-05
0.00011966492
0.00014589405
0.00017677833
0.00021473774
0.00026142573
0.00031888639
0.00038965421
0.00047687275
0.00059000417
0.00072376396
0.00088899659
0.0010933314
0.0011921364
0.001190554
0.0011889892
0.0011874301
0.0011858735
0.0011843163
0.0011827644
0.0011812619
0.0011800214
0.0011789796
0.0011781143
0.001177396
0.0011768038
0.0011763323
0.0011759227
0.0011756276
0.0011753909
0.0011751678
0.0011749471
0.0011748158
0.001174925
0.0011752247
0.0011751888
1.4875817e-07
1.5098695e-06
1.01304e-06
7.1883592e-07
7.7979985e-07
7.8678166e-07
8.7056196e-07
9.7268042e-07
1.096794e-06
1.2386628e-06
1.3994615e-06
1.5800967e-06
1.782069e-06
2.0070121e-06
2.2568118e-06
2.5335707e-06
2.8396432e-06
3.1776659e-06
3.5505996e-06
3.9617824e-06
4.4150029e-06
4.9146036e-06
5.4656298e-06
6.0740427e-06
6.7470211e-06
7.4933756e-06
8.3240957e-06
9.2530505e-06
1.0297876e-05
1.148103e-05
1.2831062e-05
1.43842e-05
1.6186142e-05
1.8294293e-05
2.0780405e-05
2.3733795e-05
2.7265261e-05
3.1511836e-05
3.6642618e-05
4.2865934e-05
5.0438291e-05
6.0102931e-05
7.1481267e-05
8.5405613e-05
0.00010246837
0.00012339786
0.00014909257
0.00018066145
0.00021947465
0.00026722476
0.00032601238
0.00040212003
0.00049206806
0.0006030351
0.0007400771
0.00090951619
0.0011192629
0.0011921954
0.0011905833
0.0011889876
0.0011874014
0.0011858221
0.0011842499
0.0011827009
0.0011812615
0.0011800836
0.001179093
0.0011782702
0.0011775892
0.0011770307
0.0011765945
0.0011762085
0.0011759261
0.0011757068
0.0011755027
0.0011753212
0.0011752368
0.0011753549
0.0011756078
0.0011755671
1.4508308e-07
9.2368342e-07
8.2947445e-07
6.119239e-07
6.6935501e-07
7.2969311e-07
8.3173675e-07
9.5043791e-07
1.0874616e-06
1.2417943e-06
1.4146876e-06
1.6073351e-06
1.8212661e-06
2.0581825e-06
2.3200111e-06
2.6089118e-06
2.9273062e-06
3.2778661e-06
3.6636885e-06
4.0881699e-06
4.5551817e-06
5.0691504e-06
5.6352073e-06
6.2594035e-06
6.9490169e-06
7.7129741e-06
8.5624084e-06
9.5113821e-06
1.058644e-05
1.1796989e-05
1.3178108e-05
1.4766942e-05
1.661028e-05
1.8766841e-05
2.1309951e-05
2.4330829e-05
2.7942559e-05
3.2284956e-05
3.7530533e-05
4.3891822e-05
5.1630346e-05
6.1067578e-05
7.259842e-05
8.6710017e-05
0.00010400136
0.00012521098
0.00015125008
0.0001848522
0.00022447983
0.00027322372
0.00033323126
0.00040716602
0.00049834292
0.00061089626