/*--------------------------------*- C++ -*----------------------------------*\
| =========                 |                                                 |
| \\      /  F ield         | OpenFOAM: The Open Source CFD Toolbox           |
|  \\    /   O peration     | Version:  2512                                  |
|   \\  /    A nd           | Website:  www.openfoam.com                      |
|    \\/     M anipulation  |                                                 |
\*---------------------------------------------------------------------------*/
FoamFile
{
    version     2.0;
    format      ascii;
    arch        "LSB;label=32;scalar=64";
    class       volScalarField;
    location    "0.141";
    object      k;
}
// * * * * * * * * * * * * * * * * * * * * * * * * * * * * * * * * * * * * * //

dimensions      [0 2 -2 0 0 0 0];

internalField   nonuniform List<scalar> 
16000
(
0.061476531
0.021418794
0.022445086
0.016536651
0.014007615
0.012682029
0.01189214
0.011417744
0.011100777
0.010885435
0.010726765
0.010608563
0.010516215
0.010443079
0.010384222
0.010336692
0.010297833
0.010265886
0.010239871
0.010218358
0.010200916
0.010186603
0.010175121
0.010165976
0.01015883
0.010153386
0.010149463
0.01014687
0.010145473
0.01014514
0.010145747
0.010147192
0.01014939
0.010152272
0.010155777
0.010159848
0.010164426
0.010169453
0.010174872
0.010180624
0.010186647
0.010192869
0.010199225
0.010205646
0.01021206
0.010218395
0.010224592
0.010230602
0.010236381
0.010241886
0.010247073
0.010251896
0.010256305
0.010260254
0.0102637
0.010266607
0.010268942
0.010270669
0.010271747
0.010272121
0.010271715
0.010270427
0.010268153
0.010264754
0.010260061
0.010253911
0.01024617
0.010236738
0.010225486
0.010212172
0.010196267
0.010176574
0.010152377
0.010130415
0.010112402
0.010096657
0.010082858
0.010079998
0.010074291
0.010103024
0.054927556
0.020061127
0.020983403
0.015988766
0.013664448
0.012482022
0.011730547
0.011305626
0.011000487
0.010802677
0.010653999
0.010544552
0.010458591
0.010390929
0.01033652
0.010292838
0.010257349
0.010228262
0.01020487
0.010185639
0.010170321
0.01015792
0.010148205
0.010140706
0.01013511
0.010131109
0.010128543
0.010127222
0.010127017
0.010127806
0.010129467
0.010131898
0.010135013
0.01013874
0.01014302
0.010147793
0.010153004
0.010158593
0.010164503
0.01017068
0.010177061
0.010183579
0.01019017
0.010196768
0.010203306
0.010209713
0.010215929
0.010221909
0.01022761
0.010232997
0.010238031
0.01024267
0.010246872
0.010250593
0.010253794
0.010256441
0.010258507
0.010259958
0.010260757
0.010260856
0.010260187
0.010258658
0.01025617
0.010252589
0.01024775
0.010241477
0.010233625
0.01022409
0.010212743
0.010199359
0.010183511
0.010164191
0.010140544
0.010119581
0.010102489
0.010087569
0.010075123
0.01006928
0.010070995
0.010100133
0.048713796
0.019089747
0.01963681
0.015426637
0.013313073
0.012255909
0.011562892
0.011179287
0.010898215
0.01071852
0.010580972
0.010480709
0.010401632
0.010339739
0.010290101
0.010250495
0.01021861
0.010192575
0.010171987
0.010155193
0.01014214
0.01013178
0.010123947
0.010118191
0.010114233
0.010111759
0.010110625
0.010110645
0.010111694
0.010113656
0.010116416
0.010119868
0.010123928
0.010128523
0.010133589
0.010139067
0.010144902
0.010151035
0.010157409
0.010163968
0.010170656
0.010177407
0.010184157
0.010190847
0.010197413
0.010203788
0.010209914
0.010215748
0.010221254
0.010226399
0.010231151
0.010235477
0.01023934
0.010242701
0.010245524
0.010247782
0.010249448
0.010250495
0.01025089
0.010250587
0.010249527
0.010247627
0.010244793
0.010240898
0.010235779
0.010229257
0.010221175
0.01021142
0.010199873
0.010186304
0.010170347
0.010151216
0.010128111
0.010108323
0.010092287
0.010078478
0.010066819
0.010059979
0.010065185
0.01008678
0.045607921
0.018435832
0.018487773
0.014922906
0.012995129
0.012051946
0.011409785
0.011065014
0.010804503
0.010641278
0.010514341
0.010422561
0.010350052
0.010293617
0.010248536
0.010212814
0.01018441
0.010161302
0.010143437
0.010129002
0.010118155
0.010109786
0.010103797
0.010099746
0.010097394
0.010096418
0.010096687
0.01009802
0.010100293
0.010103396
0.010107215
0.010111647
0.010116603
0.010122008
0.010127797
0.01013391
0.010140289
0.010146878
0.01015362
0.010160459
0.010167343
0.01017421
0.010180999
0.010187655
0.010194121
0.010200335
0.010206242
0.010211801
0.010216982
0.010221759
0.010226106
0.010229998
0.010233404
0.010236291
0.010238628
0.01024039
0.010241556
0.010242103
0.010242001
0.010241209
0.010239673
0.010237318
0.010234056
0.010229768
0.010224293
0.010217449
0.010209068
0.010199028
0.010187216
0.010173406
0.010157259
0.010138249
0.010115628
0.010097047
0.010082137
0.010069469
0.010058422
0.010051533
0.010058694
0.010074377
0.040267968
0.018044357
0.017555335
0.014456792
0.012698982
0.011859199
0.011266219
0.010957216
0.010717156
0.010569368
0.010452848
0.010369159
0.010303079
0.010251946
0.010211337
0.010179405
0.010154446
0.010134217
0.010119062
0.01010697
0.010098325
0.010091953
0.010087822
0.010085478
0.010084733
0.010085269
0.010086937
0.010089583
0.010093074
0.010097303
0.010102159
0.010107538
0.010113348
0.01011951
0.010125958
0.010132631
0.010139469
0.010146418
0.010153421
0.010160426
0.010167382
0.010174234
0.010180926
0.010187408
0.010193629
0.010199536
0.010205078
0.010210219
0.010214934
0.010219203
0.01022301
0.010226336
0.010229157
0.010231447
0.010233179
0.010234333
0.010234891
0.010234833
0.010234135
0.010232758
0.010230651
0.010227749
0.010223969
0.010219198
0.010213282
0.010206035
0.010197279
0.01018688
0.010174733
0.010160619
0.010144191
0.010125206
0.010103261
0.010085923
0.010072184
0.010060647
0.010050242
0.010043697
0.010050909
0.010061988
0.036777808
0.017880644
0.016851685
0.01402969
0.012426789
0.011679937
0.011133603
0.010857421
0.010637021
0.010503446
0.01039704
0.010320977
0.01026112
0.010215098
0.010178845
0.010150588
0.010129028
0.010111625
0.010099157
0.010089404
0.010082948
0.010078586
0.010076345
0.010075703
0.010076544
0.010078619
0.010081654
0.010085598
0.010090284
0.010095604
0.01010145
0.010107716
0.010114308
0.010121144
0.010128155
0.010135277
0.010142454
0.010149631
0.010156756
0.010163777
0.01017065
0.010177328
0.010183761
0.010189905
0.010195718
0.010201157
0.010206177
0.010210748
0.01021485
0.010218473
0.010221604
0.010224235
0.01022635
0.010227928
0.010228947
0.010229391
0.010229243
0.01022849
0.010227108
0.010225064
0.010222308
0.010218781
0.010214407
0.01020908
0.010202649
0.010194933
0.01018574
0.010174922
0.010162378
0.010147918
0.010131153
0.010112063
0.010091075
0.01007502
0.010062481
0.010052062
0.010042392
0.010036347
0.010043124
0.010050594
0.034855402
0.01789107
0.016349044
0.01363784
0.012175931
0.011513448
0.011011583
0.010765358
0.010563923
0.010443381
0.010346772
0.010277955
0.010224147
0.010183105
0.010151143
0.010126494
0.010108323
0.010093741
0.010083952
0.0100766
0.010072312
0.010070026
0.010069803
0.010070832
0.010073177
0.010076722
0.010081189
0.010086406
0.01009225
0.010098609
0.010105377
0.010112446
0.01011972
0.010127114
0.010134559
0.010141989
0.01014935
0.010156591
0.010163663
0.010170522
0.01017713
0.010183448
0.010189437
0.01019506
0.010200287
0.010205084
0.010209416
0.010213259
0.010216599
0.010219433
0.010221757
0.010223569
0.01022486
0.010225617
0.010225822
0.010225459
0.010224518
0.010222986
0.010220842
0.010218056
0.010214581
0.01021036
0.010205324
0.010199373
0.010192364
0.010184117
0.010174433
0.010163146
0.010150149
0.010135301
0.010118188
0.010098821
0.010079227
0.010064482
0.010053146
0.010043831
0.010035006
0.010029459
0.010035259
0.010039574
0.031495986
0.018003736
0.015926629
0.01327891
0.011944761
0.011359571
0.010899603
0.01068093
0.01049751
0.010389113
0.010302042
0.010240204
0.010192325
0.010156187
0.010128496
0.010107424
0.010092636
0.010080924
0.010073743
0.010069011
0.010066741
0.010066768
0.010067992
0.010070934
0.010075029
0.010080062
0.010085876
0.01009232
0.010099255
0.010106568
0.010114151
0.010121897
0.01012971
0.010137502
0.010145205
0.010152756
0.010160103
0.010167201
0.010174009
0.010180493
0.010186622
0.01019237
0.010197709
0.010202614
0.010207065
0.01021104
0.010214516
0.010217473
0.010219907
0.010221819
0.010223212
0.01022409
0.010224453
0.010224293
0.010223595
0.010222347
0.010220537
0.010218156
0.010215186
0.010211597
0.010207344
0.010202373
0.01019662
0.010189991
0.010182351
0.010173522
0.010163304
0.01015151
0.010138016
0.010122735
0.010105326
0.010085556
0.0100678
0.010054399
0.010044257
0.010036032
0.010028164
0.010023104
0.010027603
0.010029079
0.028834145
0.018158636
0.015406167
0.012949812
0.011731988
0.011217442
0.010797191
0.010603691
0.010438115
0.010341031
0.010263198
0.010208118
0.010166051
0.010134755
0.010111325
0.010093827
0.01008233
0.010073659
0.010068722
0.010066765
0.010065299
0.010068746
0.010072183
0.010076828
0.010082491
0.010088967
0.010096074
0.010103655
0.01011157
0.010119702
0.010127943
0.010136188
0.010144342
0.010152318
0.010160051
0.010167484
0.010174572
0.010181279
0.010187576
0.01019344
0.010198852
0.0102038
0.01020827
0.010212251
0.010215734
0.01021871
0.010221167
0.010223092
0.010224485
0.010225354
0.010225707
0.010225555
0.010224902
0.010223744
0.010222072
0.010219872
0.010217135
0.01021385
0.010210003
0.010205564
0.010200489
0.010194724
0.010188211
0.010180862
0.010172547
0.010163099
0.010152312
0.010139986
0.010125969
0.0101102
0.010092584
0.010072894
0.010056894
0.010044867
0.010035895
0.010028737
0.010021917
0.010017335
0.010020366
0.01001919
0.027127973
0.018284832
0.014733174
0.012647881
0.01153781
0.01108801
0.010705672
0.010534584
0.010386297
0.010299571
0.010230662
0.010182158
0.010145796
0.010119294
0.010100123
0.010086254
0.010077586
0.010072542
0.01006831
0.010070943
0.010073481
0.010077102
0.01008241
0.010088778
0.010095979
0.010103807
0.010112087
0.01012066
0.010129381
0.010138132
0.010146806
0.010155302
0.010163531
0.010171413
0.010178889
0.010185912
0.010192449
0.010198478
0.010203984
0.010208959
0.0102134
0.010217311
0.010220693
0.010223548
0.01022588
0.010227692
0.010228982
0.010229745
0.010229985
0.010229711
0.010228939
0.01022768
0.010225942
0.010223728
0.010221028
0.010217831
0.010214125
0.010209899
0.01020514
0.010199818
0.010193891
0.010187304
0.010180002
0.010171902
0.010162884
0.010152786
0.010141406
0.010128535
0.010113995
0.010097699
0.010079852
0.010060896
0.0100466
0.010035954
0.010028125
0.010021994
0.010016285
0.010012204
0.010013764
0.010011847
0.025157056
0.018372027
0.014182613
0.012371495
0.011362926
0.010970914
0.010625057
0.010473864
0.010342081
0.010265106
0.010204835
0.010162799
0.01013207
0.010110349
0.010095434
0.010085398
0.010077646
0.010078271
0.010079204
0.010081486
0.010086036
0.010092119
0.010099255
0.010107243
0.010115851
0.010124874
0.010134134
0.010143471
0.010152742
0.010161827
0.010170625
0.010179046
0.01018701
0.010194451
0.010201323
0.010207595
0.010213251
0.010218285
0.010222703
0.010226513
0.01022973
0.010232374
0.010234462
0.010236008
0.010237029
0.010237537
0.010237539
0.010237037
0.010236037
0.01023455
0.01023259
0.010230173
0.010227309
0.010224001
0.010220243
0.010216022
0.010211325
0.010206138
0.010200448
0.010194228
0.010187433
0.010180009
0.010171902
0.010163034
0.010153294
0.010142529
0.010130544
0.01011712
0.010102076
0.010085279
0.010067066
0.010049663
0.010036989
0.010027714
0.010021
0.010015844
0.010011255
0.010007812
0.010008085
0.010005492
0.023568113
0.018446361
0.013688688
0.012120764
0.011207203
0.010865986
0.010554804
0.010421815
0.010305909
0.010238134
0.010186239
0.010150616
0.010125483
0.010108567
0.010097879
0.010092132
0.010090471
0.010090805
0.010094119
0.010099522
0.010106324
0.010114279
0.010123123
0.010132562
0.010142367
0.010152328
0.010162272
0.010172041
0.010181497
0.010190529
0.010199047
0.010206979
0.010214264
0.010220856
0.01022673
0.010231877
0.010236301
0.010240019
0.010243055
0.010245438
0.010247199
0.010248373
0.010248991
0.010249079
0.010248663
0.010247763
0.010246392
0.010244558
0.010242264
0.010239522
0.010236345
0.010232747
0.010228738
0.010224324
0.010219498
0.010214248
0.010208556
0.010202407
0.010195785
0.010188663
0.010180999
0.010172737
0.010163822
0.010154183
0.010143714
0.010132276
0.010119683
0.010105708
0.010090175
0.010073015
0.010054446
0.010039242
0.010028115
0.010020175
0.010014557
0.010010322
0.01000679
0.010004142
0.010003557
0.010000339
0.022145069
0.018446919
0.013272339
0.011894839
0.011069787
0.010773651
0.010495554
0.010379022
0.010278098
0.010219211
0.010175487
0.010146286
0.010126757
0.0101147
0.010108304
0.010106209
0.010107468
0.010111614
0.010117708
0.010125376
0.010134269
0.010144021
0.010154331
0.01016493
0.010175588
0.010186099
0.010196295
0.010206033
0.010215191
0.010223675
0.010231417
0.01023837
0.010244504
0.010249801
0.010254263
0.010257907
0.010260761
0.010262862
0.010264256
0.010264987
0.010265103
0.01026465
0.010263669
0.010262197
0.010260264
0.010257895
0.010255107
0.010251909
0.010248305
0.0102443
0.010239905
0.010235131
0.010229987
0.010224477
0.010218596
0.010212329
0.010205657
0.01019856
0.010191018
0.010183008
0.010174487
0.010165398
0.010155686
0.010145282
0.010134091
0.01012198
0.010108785
0.010094282
0.010078263
0.010060905
0.01004307
0.010029677
0.01002002
0.010013351
0.010008814
0.010005459
0.010002848
0.010001127
0.010000351
0.0099968608
0.020874978
0.018278131
0.012886086
0.011692296
0.010949634
0.010693591
0.010447421
0.010345651
0.010259219
0.01020906
0.010173381
0.010150648
0.010136759
0.010129611
0.010127552
0.010129353
0.010134103
0.010141071
0.010149755
0.010159661
0.010170381
0.010181576
0.010192956
0.010204255
0.010215254
0.01022576
0.010235626
0.010244732
0.010252989
0.010260334
0.010266734
0.010272178
0.01027667
0.01028023
0.010282887
0.010284685
0.010285676
0.010285917
0.010285466
0.010284385
0.010282729
0.010280553
0.010277904
0.010274823
0.010271343
0.010267491
0.010263285
0.010258732
0.010253835
0.010248593
0.01024301
0.010237092
0.010230844
0.01022427
0.010217364
0.010210111
0.010202489
0.010194472
0.010186039
0.010177164
0.010167808
0.010157917
0.010147428
0.010136277
0.010124378
0.010111608
0.010097818
0.010082829
0.010066401
0.010048754
0.010032771
0.010021039
0.010012731
0.010007243
0.010003763
0.010001272
0.0099994089
0.0099986252
0.0099983606
0.0099949889
0.019741005
0.017829066
0.012538506
0.011512372
0.01084723
0.010626336
0.010410684
0.010322599
0.010250051
0.010208641
0.010180932
0.010164742
0.010156541
0.010154337
0.0101566
0.010162164
0.010170166
0.010179947
0.010190932
0.010202659
0.010214741
0.010226839
0.010238674
0.010250002
0.010260631
0.010270402
0.010279205
0.010286966
0.01029364
0.010299212
0.010303691
0.010307108
0.010309507
0.01031094
0.010311468
0.010311155
0.010310073
0.010308289
0.010305876
0.010302898
0.010299418
0.010295491
0.010291167
0.010286487
0.010281483
0.01027618
0.010270594
0.01026473
0.010258588
0.010252161
0.010245444
0.010238437
0.010231139
0.010223551
0.010215667
0.010207472
0.010198942
0.010190047
0.010180761
0.010171056
0.010160898
0.010150234
0.010139
0.010127129
0.010114547
0.01010114
0.010086766
0.010071307
0.010054698
0.010037256
0.010023559
0.010013361
0.010006276
0.01000185
0.0099993661
0.0099977407
0.0099965006
0.009996489
0.0099971485
0.0099941151
0.01872735
0.017018407
0.012227971
0.011354133
0.01076229
0.010572247
0.010386006
0.010310814
0.010251712
0.010219169
0.010199404
0.010189813
0.0101873
0.010189986
0.010196441
0.010205561
0.010216507
0.010228619
0.010241358
0.010254264
0.010266962
0.010279143
0.010290564
0.010301027
0.010310391
0.010318558
0.010325477
0.010331132
0.010335538
0.010338733
0.010340773
0.010341729
0.010341679
0.010340705
0.010338888
0.010336308
0.010333046
0.010329177
0.010324773
0.010319901
0.010314619
0.010308983
0.010303037
0.010296819
0.010290358
0.010283676
0.010276782
0.010269681
0.010262367
0.010254829
0.010247053
0.010239029
0.01023075
0.010222213
0.01021341
0.010204327
0.010194941
0.010185218
0.010175126
0.010164635
0.010153713
0.010142315
0.010130374
0.010117819
0.010104581
0.010090572
0.010075656
0.010059725
0.01004304
0.010027223
0.010015397
0.010006651
0.010000672
0.0099971751
0.0099955728
0.0099947803
0.0099941608
0.0099948047
0.0099964691
0.0099946726
0.01782113
0.016079136
0.011957174
0.011217556
0.010694407
0.01053236
0.010374475
0.010311795
0.010265693
0.010242151
0.010230276
0.010227243
0.010230287
0.010237627
0.01024791
0.01026008
0.010273319
0.010286988
0.010300571
0.010313646
0.01032589
0.010337051
0.010346958
0.010355494
0.010362597
0.010368251
0.010372477
0.010375327
0.010376875
0.010377211
0.010376429
0.010374634
0.010371926
0.010368405
0.010364162
0.010359284
0.01035385
0.010347934
0.010341603
0.010334917
0.010327927
0.010320682
0.010313218
0.010305568
0.010297754
0.010289792
0.010281691
0.010273447
0.010265053
0.010256491
0.010247741
0.010238785
0.010229608
0.010220198
0.010210545
0.010200636
0.01019045
0.010179955
0.010169112
0.010157885
0.010146242
0.010134149
0.010121544
0.010108349
0.01009449
0.010079906
0.010064516
0.010048264
0.010031614
0.010018392
0.010008277
0.010000881
0.0099959196
0.0099932298
0.0099923503
0.0099922806
0.009992317
0.0099936536
0.009996216
0.0099961801
0.017011563
0.015312455
0.011726776
0.011103013
0.010644454
0.010508121
0.010377658
0.010327278
0.010293751
0.010279265
0.010275116
0.010278406
0.010286611
0.010298033
0.01031138
0.01032565
0.010340065
0.010354039
0.01036713
0.010379002
0.010389429
0.010398268
0.010405451
0.010410971
0.010414862
0.010417194
0.010418063
0.010417581
0.010415872
0.01041306
0.010409268
0.010404613
0.010399208
0.010393153
0.010386541
0.010379452
0.010371958
0.010364124
0.010356004
0.010347649
0.010339099
0.01033039
0.010321551
0.010312605
0.010303567
0.01029445
0.010285254
0.010275975
0.010266601
0.010257111
0.01024748
0.010237682
0.010227693
0.010217493
0.010207067
0.0101964
0.010185475
0.010174264
0.010162726
0.010150819
0.010138507
0.010125759
0.010112531
0.010098747
0.010084319
0.010069188
0.010053357
0.010037057
0.010021958
0.010010649
0.010002132
0.0099959898
0.0099919854
0.0099900103
0.0099896903
0.0099901721
0.0099908241
0.0099926954
0.0099959955
0.0099970449
0.016288846
0.014626975
0.011532339
0.01101115
0.010613507
0.010501358
0.010397309
0.010359287
0.010337874
0.010332303
0.010335442
0.01034441
0.010356869
0.010371213
0.010386239
0.010401041
0.01041495
0.010427505
0.010438405
0.010447464
0.0104546
0.01045981
0.010463153
0.010464731
0.010464672
0.01046312
0.010460227
0.010456146
0.010451027
0.010445011
0.010438226
0.010430789
0.010422807
0.010414372
0.010405563
0.01039645
0.01038709
0.010377531
0.010367817
0.010357981
0.010348053
0.010338055
0.010328006
0.01031792
0.010307804
0.010297664
0.010287497
0.010277295
0.010267044
0.010256722
0.010246301
0.01023575
0.010225038
0.010214134
0.010203016
0.010191664
0.010180064
0.010168192
0.010156014
0.010143485
0.010130561
0.010117205
0.010103388
0.010089057
0.010074124
0.010058525
0.010042369
0.010026269
0.010013641
0.010003987
0.0099968766
0.009991885
0.0099887904
0.0099874741
0.0099875844
0.0099884231
0.0099895926
0.0099920587
0.0099957027
0.009998282
0.015645681
0.01403484
0.011372772
0.010942863
0.010602737
0.010514478
0.010435751
0.010410225
0.010400227
0.010402903
0.010412237
0.010425452
0.010440421
0.010455697
0.01047026
0.010483403
0.010494668
0.010503799
0.010510702
0.010515379
0.010517914
0.010518443
0.01051714
0.010514192
0.010509795
0.010504136
0.010497393
0.010489732
0.010481305
0.010472245
0.010462671
0.010452685
0.010442374
0.010431813
0.010421064
0.010410178
0.010399196
0.01038815
0.010377065
0.010365961
0.010354854
0.010343755
0.010332671
0.010321607
0.010310562
0.010299536
0.010288521
0.010277509
0.010266482
0.01025542
0.010244295
0.010233072
0.010221717
0.010210193
0.010198466
0.010186509
0.010174302
0.010161826
0.010149058
0.01013596
0.010122483
0.010108578
0.01009421
0.010079357
0.010063976
0.010048006
0.010031741
0.01001739
0.010006512
0.0099983333
0.0099924319
0.0099884605
0.009986212
0.0099855177
0.0099859917
0.0099870603
0.009988621
0.0099916756
0.009995614
0.0099987935
0.015075965
0.013527145
0.011249548
0.01090101
0.010614081
0.010550926
0.010495952
0.010482543
0.010482454
0.010491607
0.010504888
0.010519781
0.010534494
0.010547888
0.010559264
0.010568231
0.010574624
0.010578444
0.010579816
0.010578924
0.010575991
0.010571258
0.010564967
0.010557351
0.010548626
0.010538987
0.010528607
0.010517638
0.010506211
0.010494437
0.010482411
0.01047021
0.010457899
0.010445529
0.010433141
0.010420766
0.010408428
0.010396142
0.010383918
0.010371764
0.01035968
0.010347667
0.010335721
0.010323838
0.010312012
0.010300234
0.010288495
0.010276781
0.010265076
0.010253359
0.010241605
0.010229782
0.010217854
0.010205781
0.010193523
0.010181041
0.010168306
0.010155293
0.010141985
0.010128358
0.010114378
0.010099991
0.010085136
0.010069783
0.010053982
0.010037893
0.010022073
0.010009913
0.010000541
0.0099936126
0.0099887343
0.0099856303
0.009984122
0.0099839918
0.0099848018
0.0099860564
0.0099878969
0.0099913844
0.0099956732
0.009999216
0.014578012
0.013096393
0.011164765
0.010890446
0.010651627
0.010614449
0.010580439
0.010577277
0.010584064
0.010596323
0.010609912
0.01062281
0.010633753
0.010642073
0.010647498
0.010650006
0.010649735
0.010646921
0.010641857
0.01063485
0.010626198
0.010616182
0.010605058
0.010593052
0.010580361
0.010567156
0.01055358
0.01053975
0.010525766
0.010511706
0.010497636
0.010483605
0.010469653
0.010455808
0.01044209
0.010428511
0.010415079
0.010401796
0.010388657
0.010375657
0.010362787
0.010350037
0.010337393
0.010324845
0.010312378
0.010299978
0.010287631
0.010275321
0.010263031
0.010250742
0.010238429
0.010226067
0.010213622
0.010201056
0.010188329
0.010175394
0.010162211
0.010148742
0.01013496
0.010120848
0.010106393
0.010091567
0.010076316
0.010060563
0.010044313
0.010028058
0.010014268
0.010003648
0.0099956105
0.0099897445
0.0099857295
0.0099833441
0.0099824361
0.0099827648
0.0099838817
0.0099853617
0.0099874652
0.0099911721
0.009995661
0.0099993138
0.014156851
0.012740963
0.011121422
0.010915767
0.010742477
0.010707123
0.010689097
0.010691957
0.010700681
0.010711169
0.010720461
0.010727253
0.010730951
0.010731421
0.010728807
0.010723399
0.010715556
0.010705651
0.010694052
0.010681095
0.010667078
0.010652258
0.010636854
0.010621049
0.010604995
0.010588813
0.010572604
0.010556447
0.010540402
0.010524515
0.010508822
0.010493346
0.010478104
0.010463102
0.010448344
0.010433826
0.010419542
0.01040548
0.010391627
0.010377967
0.010364483
0.010351155
0.010337964
0.01032489
0.010311913
0.010299014
0.010286173
0.010273372
0.010260591
0.010247811
0.01023501
0.010222165
0.010209249
0.01019623
0.010183072
0.010169732
0.010156165
0.010142323
0.010128161
0.010113644
0.010098752
0.010083482
0.010067845
0.010051865
0.010035642
0.010019787
0.010007828
0.0099985277
0.009991596
0.0099866303
0.0099833466
0.0099815577
0.0099811173
0.0099817758
0.009983127
0.0099848562
0.00998728
0.0099911595
0.0099957324
0.0099994249
0.013823514
0.012461762
0.011123649
0.010975563
0.010849185
0.010826621
0.01081671
0.010819109
0.010823523
0.010826847
0.010827388
0.010824641
0.010818636
0.010809666
0.010798149
0.010784534
0.010769251
0.010752689
0.010735184
0.010717021
0.010698436
0.01067962
0.010660725
0.010641872
0.010623154
0.010604644
0.010586395
0.010568446
0.010550824
0.010533546
0.010516621
0.01050005
0.01048383
0.010467954
0.010452409
0.010437181
0.010422251
0.0104076
0.010393205
0.010379045
0.010365093
0.010351326
0.010337718
0.010324243
0.010310876
0.010297593
0.010284369
0.010271182
0.010258008
0.010244825
0.010231614
0.010218351
0.010205013
0.010191577
0.010178012
0.010164286
0.01015036
0.01013619
0.010121726
0.010106917
0.010091715
0.010076079
0.010060003
0.010043584
0.010027318
0.010013375
0.010002634
0.009994441
0.0099884016
0.0099841735
0.0099814952
0.0099801951
0.0099801199
0.0099810116
0.0099825149
0.0099844469
0.0099871591
0.0099911847
0.009995795
0.0099994814
0.013601592
0.012260658
0.011173771
0.011075317
0.010983326
0.010962665
0.010951984
0.010946853
0.010941072
0.010932878
0.010921702
0.010907668
0.010891184
0.010872732
0.010852786
0.01083177
0.010810044
0.010787907
0.010765594
0.010743293
0.010721147
0.010699266
0.010677728
0.010656592
0.010635897
0.01061567
0.010595923
0.010576665
0.010557892
0.0105396
0.010521776
0.010504405
0.010487471
0.010470953
0.01045483
0.010439076
0.010423669
0.01040858
0.010393783
0.01037925
0.010364952
0.01035086
0.010336944
0.010323174
0.010309522
0.010295958
0.010282454
0.010268983
0.010255518
0.010242033
0.010228505
0.010214909
0.010201223
0.010187424
0.010173488
0.01015939
0.010145103
0.010130595
0.01011583
0.010100766
0.010085359
0.010069567
0.010053373
0.010036891
0.010020812
0.010008373
0.0099986383
0.0099913055
0.0099859671
0.0099823182
0.0099801147
0.0099791821
0.00997936
0.0099804323
0.009982043
0.0099841387
0.0099870562
0.0099911504
0.0099957534
0.0099993694
0.013438186
0.012137697
0.011273434
0.011201357
0.011127661
0.011101367
0.011080679
0.011062152
0.011042353
0.011020663
0.010997154
0.010972185
0.010946193
0.01091958
0.010892686
0.010865783
0.010839081
0.010812739
0.010786871
0.010761557
0.010736852
0.010712788
0.010689382
0.010666642
0.010644562
0.010623134
0.010602342
0.010582167
0.010562587
0.01054358
0.010525119
0.010507178
0.010489731
0.010472749
0.010456204
0.010440066
0.010424305
0.010408891
0.010393794
0.010378982
0.010364425
0.01035009
0.010335947
0.010321963
0.010308107
0.010294347
0.010280651
0.01026699
0.010253331
0.010239647
0.010225908
0.010212086
0.010198155
0.010184089
0.010169864
0.010155456
0.010140841
0.010125994
0.010110891
0.010095506
0.010079811
0.010063787
0.010047464
0.010031111
0.010016062
0.010004631
0.0099957138
0.0099890373
0.0099842322
0.0099810263
0.0099791935
0.0099785344
0.0099788225
0.0099800123
0.0099816905
0.0099839018
0.0099869157
0.0099909606
0.0099954905
0.0099991406
0.013366345
0.012091346
0.011423808
0.0113368
0.011265882
0.011224591
0.01118823
0.011153905
0.011119812
0.011085683
0.011051614
0.01101781
0.01098448
0.010951796
0.010919883
0.010888828
0.010858682
0.010829474
0.010801209
0.010773882
0.010747477
0.01072197
0.010697331
0.01067353
0.010650533
0.010628305
0.010606811
0.010586016
0.010565885
0.010546384
0.010527477
0.010509133
0.010491316
0.010473994
0.010457135
0.010440707
0.010424675
0.01040901
0.010393677
0.010378646
0.010363883
0.010349357
0.010335035
0.010320885
0.010306875
0.010292972
0.010279144
0.010265358
0.010251583
0.010237785
0.010223933
0.010209996
0.010195941
0.010181739
0.010167359
0.010152773
0.010137952
0.01012287
0.010107501
0.010091825
0.010075826
0.01005951
0.010042974
0.010026695
0.010012765
0.010002019
0.0099937153
0.0099875187
0.0099830949
0.0099801979
0.0099786378
0.0099781548
0.0099786321
0.0099797997
0.0099815331
0.0099838152
0.0099868137
0.0099906505
0.0099949368
0.0099986926
0.013357367
0.01206379
0.011563458
0.011457811
0.011375676
0.011317105
0.011265028
0.011217054
0.01117164
0.011128286
0.011086763
0.011046955
0.011008787
0.010972191
0.010937104
0.010903459
0.010871187
0.010840223
0.010810498
0.010781949
0.010754512
0.010728128
0.010702737
0.010678286
0.010654722
0.010631994
0.010610057
0.010588863
0.010568372
0.010548541
0.010529331
0.010510705
0.010492625
0.010475056
0.010457964
0.010441313
0.010425071
0.010409204
0.01039368
0.010378467
0.010363532
0.010348843
0.010334369
0.010320077
0.010305936
0.010291915
0.010277981
0.010264103
0.010250248
0.010236385
0.010222481
0.010208503
0.01019442
0.010180197
0.010165802
0.010151201
0.010136359
0.010121243
0.01010582
0.010090057
0.01007393
0.010057442
0.010040714
0.010024352
0.010010974
0.010000596
0.009992624
0.0099867043
0.0099825109
0.0099798048
0.0099784112
0.0099780136
0.0099785741
0.0099797879
0.0099815849
0.0099839507
0.0099869309
0.0099905605
0.0099945792
0.0099983771
0.01341708
0.012082811
0.011663123
0.011541148
0.011446411
0.011374137
0.011310992
0.011254138
0.011201745
0.011152925
0.011107113
0.011063926
0.011023078
0.010984343
0.010947532
0.010912488
0.010879072
0.010847162
0.01081665
0.010787439
0.010759439
0.010732572
0.010706763
0.010681945
0.010658056
0.010635037
0.010612834
0.010591398
0.010570681
0.010550638
0.010531228
0.010512411
0.010494147
0.0104764
0.010459134
0.010442315
0.010425907
0.010409878
0.010394196
0.010378827
0.010363739
0.010348903
0.010334285
0.010319856
0.010305584
0.010291438
0.010277389
0.010263404
0.010249455
0.01023551
0.010221539
0.010207511
0.010193394
0.01017916
0.010164775
0.01015021
0.010135433
0.010120412
0.010105117
0.010089517
0.01007359
0.010057335
0.010040853
0.010024668
0.010011077
0.010000629
0.009992604
0.0099866627
0.0099824644
0.0099797588
0.0099783699
0.0099779834
0.0099785432
0.0099797884
0.0099816393
0.0099840785
0.0099870536
0.0099905199
0.0099943285
0.0099981737
0.013513965
0.012126433
0.011712229
0.011581395
0.011478498
0.011400069
0.011332121
0.011271764
0.011216725
0.011165912
0.011118573
0.011074205
0.011032429
0.010992955
0.010955547
0.010920011
0.010886182
0.01085392
0.010823101
0.010793616
0.01076537
0.010738276
0.010712255
0.010687236
0.010663153
0.010639947
0.010617562
0.010595945
0.01057505
0.01055483
0.010535243
0.010516249
0.010497807
0.010479882
0.010462437
0.010445437
0.010428848
0.010412637
0.010396772
0.01038122
0.01036595
0.010350929
0.010336129
0.010321516
0.010307061
0.010292734
0.010278504
0.01026434
0.010250212
0.010236091
0.010221945
0.010207744
0.010193458
0.010179055
0.010164507
0.010149781
0.010134848
0.010119679
0.010104242
0.010088512
0.010072466
0.010056113
0.010039576
0.010023466
0.010010433
0.010000254
0.009992428
0.0099866023
0.0099824659
0.0099797701
0.0099783207
0.0099778816
0.0099784483
0.0099797853
0.0099816053
0.0099840724
0.0099870324
0.0099904388
0.0099941651
0.0099980629
92.023816
452.38519
141.23143
12.274261
0.27132508
0.021652383
0.020664631
0.020055225
0.019369789
0.018189458
0.016963326
0.015895066
0.015041599
0.01447656
0.014076304
0.013701712
0.013333575
0.013002851
0.012723512
0.012489766
0.012291293
0.012120241
0.011971365
0.011840836
0.011725608
0.011623198
0.011531607
0.011449245
0.01137486
0.01130746
0.011246225
0.011190439