/*--------------------------------*- C++ -*----------------------------------*\
| =========                 |                                                 |
| \\      /  F ield         | OpenFOAM: The Open Source CFD Toolbox           |
|  \\    /   O peration     | Version:  2512                                  |
|   \\  /    A nd           | Website:  www.openfoam.com                      |
|    \\/     M anipulation  |                                                 |
\*---------------------------------------------------------------------------*/
FoamFile
{
    version     2.0;
    format      ascii;
    arch        "LSB;label=32;scalar=64";
    class       volScalarField;
    location    "0.141";
    object      Ma;
}
// * * * * * * * * * * * * * * * * * * * * * * * * * * * * * * * * * * * * * //

dimensions      [0 0 0 0 0 0 0];

internalField   nonuniform List<scalar> 
16000
(
0.62583806
0.74366709
0.69821341
0.72353367
0.70808108
0.71544755
0.70956912
0.71128923
0.70860068
0.70825038
0.70663123
0.70554437
0.70415066
0.70279983
0.70135948
0.69987255
0.69832545
0.69672077
0.69505716
0.69333431
0.69155188
0.68970978
0.68780816
0.68584741
0.68382825
0.68175171
0.6796192
0.67743248
0.67519373
0.67290555
0.67057096
0.66819342
0.66577681
0.66332546
0.66084408
0.65833778
0.65581202
0.65327254
0.65072535
0.64817666
0.64563276
0.64310002
0.64058477
0.63809325
0.63563147
0.63320523
0.63081997
0.62848073
0.62619213
0.62395827
0.62178271
0.61966846
0.61761795
0.61563302
0.61371491
0.61186429
0.61008126
0.60836539
0.60671571
0.60513063
0.60360792
0.60214506
0.60073907
0.59938619
0.59808172
0.59681983
0.59559357
0.5943952
0.59321696
0.59205151
0.59089153
0.58972839
0.58855157
0.58735041
0.58611878
0.5848562
0.5835288
0.58234809
0.5804643
0.58003609
0.63031211
0.74888871
0.70165271
0.72819365
0.71189374
0.71975116
0.71340369
0.71525669
0.71237812
0.71195842
0.71025168
0.70904769
0.7075635
0.70609723
0.70454829
0.70294404
0.70127728
0.69954852
0.69775717
0.69590294
0.69398577
0.69200584
0.68996363
0.68785995
0.68569594
0.68347315
0.68119351
0.67885941
0.67647365
0.67403953
0.67156078
0.66904164
0.66648676
0.66390127
0.66129066
0.65866082
0.65601795
0.65336849
0.65071908
0.64807645
0.64544737
0.64283854
0.64025649
0.63770756
0.63519772
0.6327326
0.63031734
0.6279566
0.62565446
0.62341444
0.62123943
0.61913174
0.61709302
0.61512437
0.61322627
0.61139865
0.6096409
0.60795192
0.60633015
0.6047735
0.60327926
0.60184447
0.60046582
0.59913935
0.59786024
0.59662261
0.59541943
0.59424284
0.59308479
0.59193771
0.59079423
0.58964593
0.58848221
0.58729171
0.58606673
0.58480489
0.58351334
0.58219771
0.58061805
0.57974724
0.63451373
0.75365698
0.70525096
0.73222088
0.71549345
0.72343868
0.71694667
0.71867645
0.71575079
0.71516867
0.71339665
0.71205211
0.71046401
0.70886963
0.70719556
0.70545939
0.70365686
0.70178813
0.6998529
0.69785119
0.69578327
0.69364972
0.69145146
0.6891898
0.68686643
0.6844835
0.68204364
0.67954995
0.67700604
0.67441605
0.67178462
0.6691169
0.6664185
0.66369549
0.66095432
0.65820178
0.6554449
0.65269091
0.64994708
0.64722072
0.64451898
0.64184883
0.63921691
0.63662948
0.63409231
0.63161064
0.6291891
0.62683171
0.62454181
0.62232207
0.62017449
0.61810043
0.6161006
0.61417511
0.61232354
0.61054492
0.60883781
0.60720033
0.60563022
0.60412479
0.60268082
0.60129488
0.59996329
0.59868181
0.59744549
0.59624839
0.59508348
0.59394281
0.59281822
0.59170199
0.59058679
0.58946451
0.5883247
0.58715533
0.58594831
0.58470466
0.58342829
0.58207999
0.58064322
0.57956371
0.63832489
0.75798967
0.70825789
0.73568923
0.7186084
0.72666448
0.72000941
0.72160644
0.71861902
0.71785881
0.7160067
0.71450653
0.71279729
0.7110595
0.70924379
0.70735986
0.70540588
0.7033818
0.7012877
0.6991239
0.69689108
0.69459025
0.69222283
0.68979072
0.6872963
0.68474245
0.68213265
0.6794709
0.67676182
0.67401058
0.67122293
0.66840511
0.66556387
0.66270637
0.6598401
0.65697284
0.65411249
0.65126701
0.6484443
0.64565208
0.64289775
0.64018835
0.63753038
0.63492978
0.63239183
0.62992111
0.62752146
0.62519594
0.6229469
0.62077592
0.61868388
0.61667098
0.61473683
0.61288046
0.61110038
0.60939467
0.607761
0.60619669
0.60469877
0.60326394
0.6018885
0.60056857
0.59930013
0.59807873
0.5968993
0.59575592
0.59464157
0.59354835
0.59246799
0.59139265
0.59031508
0.58922756
0.58811975
0.58697915
0.58579814
0.58457934
0.58331706
0.58197512
0.58062673
0.57938597
0.64173926
0.7618294
0.71101888
0.73862818
0.721106
0.72931455
0.72255159
0.72395327
0.72092333
0.7199509
0.7180098
0.71633666
0.71448837
0.71259221
0.71061829
0.70857097
0.7064497
0.70425449
0.70198568
0.69964396
0.69723046
0.69474677
0.69219498
0.68957778
0.68689845
0.68416091
0.68136973
0.67853013
0.67564798
0.67272978
0.66978259
0.66681401
0.66383209
0.66084521
0.657862
0.65489124
0.65194167
0.64902191
0.6461403
0.64330478
0.64052276
0.63780104
0.63514567
0.63256192
0.63005423
0.62762615
0.62528039
0.62301877
0.62084232
0.61875128
0.61674519
0.61482295
0.61298288
0.61122283
0.6095402
0.60793206
0.60639518
0.60492608
0.60352111
0.6021764
0.60088781
0.59965106
0.59846185
0.59731555
0.59620705
0.59513046
0.59407893
0.59304462
0.59201927
0.59099497
0.58996462
0.58892088
0.58785362
0.58675036
0.58560439
0.58441691
0.58317475
0.58186256
0.58057165
0.57922988
0.64471986
0.76509916
0.71331658
0.74108807
0.72328148
0.73132238
0.72444112
0.72565391
0.72257367
0.72138198
0.71934119
0.71748456
0.71548117
0.71341362
0.71126584
0.70903914
0.70673359
0.70434951
0.70188771
0.69934951
0.69673675
0.69405193
0.69129815
0.68847926
0.6855998
0.68266505
0.67968106
0.67665459
0.67359307
0.67050461
0.66739786
0.66428194
0.66116631
0.65806066
0.65497476
0.65191828
0.64890067
0.64593095
0.64301763
0.64016853
0.63739067
0.63469017
0.6320722
0.62954093
0.6270995
0.62475006
0.62249379
0.62033095
0.61826098
0.61628255
0.61439368
0.61259184
0.610874
0.60923677
0.60767647
0.60618918
0.60477081
0.60341717
0.602124
0.60088694
0.59970149
0.59856309
0.59746724
0.5964092
0.59538389
0.59438556
0.59340755
0.59244224
0.59148142
0.59051719
0.58954263
0.58855073
0.58753169
0.58647365
0.58537056
0.58422006
0.58300568
0.58173585
0.58049436
0.57907698
0.6472552
0.76779182
0.7151732
0.74304627
0.72499151
0.73266633
0.72585647
0.72669086
0.72362857
0.72214006
0.71998118
0.71792905
0.71574943
0.71349099
0.7111468
0.70871721
0.70620298
0.7036052
0.70092554
0.69816633
0.69533056
0.69242199
0.68944517
0.68640546
0.68330908
0.6801631
0.67697538
0.67375457
0.67051002
0.66725167
0.66398995
0.66073562
0.65749962
0.65429286
0.65112609
0.64800967
0.64495338
0.6419663
0.63905661
0.6362315
0.63349704
0.63085816
0.62831857
0.62588081
0.62354628
0.62131525
0.61918704
0.61716003
0.61523184
0.61339942
0.61165918
0.6100071
0.60843881
0.60694975
0.60553519
0.60419034
0.60291038
0.60169053
0.60052603
0.59941219
0.59834425
0.5973175
0.59632733
0.59536902
0.59443757
0.59352746
0.59263234
0.59174485
0.59085698
0.58996091
0.58904986
0.58811713
0.58715342
0.5861481
0.58509514
0.58398723
0.5828088
0.58159226
0.58039646
0.57892396
0.64938243
0.76993364
0.71662157
0.74453973
0.72628324
0.73366011
0.72673104
0.727484
0.72397139
0.72223456
0.71992306
0.71764854
0.71525747
0.71277579
0.71020182
0.70753633
0.70478089
0.70193767
0.69900949
0.69600003
0.69291381
0.68975625
0.68653377
0.68325371
0.67992441
0.67655512
0.67315597
0.66973782
0.6663122
0.66289111
0.65948684
0.65611178
0.6527782
0.64949802
0.6462826
0.64314251
0.64008736
0.63712561
0.63426448
0.6315098
0.62886603
0.6263362
0.62392195
0.62162363
0.61944037
0.61737024
0.61541034
0.613557
0.61180588
0.61015215
0.60859062
0.60711585
0.60572227
0.60440424
0.60315619
0.60197262
0.60084815
0.59977757
0.59875584
0.59777805
0.59683936
0.59593504
0.5950605
0.59421114
0.59338215
0.59256831
0.59176365
0.5909612
0.59015324
0.58933212
0.58849117
0.58762385
0.58672173
0.58577582
0.58477928
0.58371901
0.58258436
0.58142992
0.58027864
0.57876623
0.6511615
0.7715446
0.71759919
0.74555468
0.72687804
0.73357836
0.72678385
0.72673163
0.72367202
0.72160623
0.71909272
0.71656015
0.71391572
0.71117194
0.70832956
0.70539037
0.70235694
0.6992328
0.69602237
0.69273113
0.68936561
0.68593349
0.68244357
0.67890578
0.67533107
0.6717314
0.66811951
0.66450885
0.6609133
0.65734696
0.65382392
0.65035797
0.64696234
0.64364942
0.64043056
0.63731578
0.63431367
0.63143123
0.62867378
0.62604496
0.62354676
0.62117958
0.61894237
0.61683277
0.61484727
0.6129814
0.61122994
0.60958706
0.60804652
0.60660179
0.60524624
0.6039732
0.6027761
0.6016485
0.60058418
0.59957717
0.59862179
0.59771261
0.59684447
0.59601246
0.59521183
0.59443795
0.5936864
0.59295281
0.59223264
0.59152106
0.59081254
0.59010062
0.58937797
0.58863719
0.58787163
0.58707488
0.58623965
0.58535895
0.58442404
0.58341607
0.58233294
0.58124744
0.58013856
0.57860216
0.65257825
0.77259042
0.71803193
0.74583259
0.72675122
0.73305255
0.72632284
0.72582382
0.72254698
0.72013405
0.71736951
0.71454283
0.71160229
0.70855465
0.70540205
0.70214795
0.69879657
0.69535344
0.69182523
0.68821992
0.68454683
0.6808166
0.67704118
0.67323368
0.66940832
0.66558018
0.66176503
0.65797902
0.65423839
0.65055918
0.64695689
0.64344613
0.64004034
0.63675148
0.63358982
0.63056375
0.62767968
0.62494199
0.62235306
0.61991336
0.61762157
0.6154748
0.61346878
0.61159807
0.60985632
0.60823649
0.60673104
0.60533214
0.60403184
0.60282221
0.60169544
0.60064397
0.59966053
0.59873817
0.59787035
0.59705092
0.59627411
0.59553453
0.59482714
0.59414719
0.59349017
0.59285172
0.59222772
0.59161411
0.59100672
0.59040115
0.58979242
0.58917463
0.58854097
0.58788436
0.5871981
0.58647582
0.58571176
0.58490086
0.58403157
0.58308022
0.58205634
0.58104455
0.57997412
0.57843041
0.65356783
0.7729603
0.71784613
0.74459606
0.7258825
0.73158323
0.72499367
0.72386984
0.72050379
0.71770834
0.71463501
0.71146874
0.70818255
0.70478237
0.70127187
0.69765676
0.69394375
0.69014118
0.68625888
0.68230832
0.67830251
0.67425597
0.67018457
0.66610538
0.66203637
0.65799614
0.65400355
0.65007737
0.64623587
0.64249638
0.63887491
0.63538579
0.63204136
0.62885174
0.62582463
0.62296529
0.62027655
0.6177589
0.61541068
0.61322828
0.61120645
0.60933853
0.60761678
0.60603263
0.60457697
0.60324037
0.60201329
0.60088625
0.59985001
0.5988956
0.59801451
0.59719864
0.59644042
0.59573279
0.59506918
0.59444355
0.59385032
0.59328438
0.59274098
0.59221575
0.59170453
0.5912034
0.59070864
0.59021656
0.58972346
0.58922543
0.58871805
0.58819605
0.58765331
0.58708308
0.58647854
0.58583343
0.58514366
0.58440574
0.58360471
0.58271421
0.58175746
0.58082223
0.57978384
0.57825226
0.65404902
0.77251143
0.71693904
0.74276991
0.72446765
0.72925073
0.72272783
0.72100822
0.71740878
0.71419378
0.71074659
0.70718534
0.70349646
0.69968792
0.69576577
0.69173896
0.68761782
0.68341473
0.67914395
0.67482161
0.67046556
0.66609519
0.66173114
0.65739498
0.65310877
0.64889463
0.64477423
0.64076826
0.63689596
0.63317458
0.62961902
0.62624147
0.62305125
0.62005462
0.61725491
0.61465255
0.61224535
0.61002876
0.60799622
0.60613951
0.60444912
0.60291459
0.60152486
0.60026854
0.59913416
0.59811042
0.5971863
0.59635125
0.59559524
0.59490883
0.59428326
0.59371039
0.59318276
0.59269351
0.59223642
0.59180582
0.59139659
0.59100406
0.59062402
0.59025255
0.58988604
0.58952107
0.58915441
0.58878285
0.58840317
0.58801199
0.58760546
0.58717906
0.58672737
0.58624407
0.58572221
0.58515574
0.58454219
0.58387879
0.58314726
0.58232188
0.58143986
0.58058155
0.57956715
0.57807164
0.65397092
0.77117541
0.71518702
0.74013751
0.72210743
0.72588379
0.71941973
0.71701985
0.71311731
0.70943032
0.70553529
0.70151162
0.69735336
0.69307236
0.68867871
0.68418607
0.67961006
0.6749687
0.67028219
0.66557273
0.66086419
0.65618174
0.6515514
0.64699945
0.64255182
0.6382334
0.63406746
0.6300749
0.62627381
0.62267897
0.61930157
0.61614909
0.61322532
0.61053051
0.60806168
0.60581295
0.60377604
0.60194067
0.60029508
0.59882642
0.59752121
0.59636564
0.59534592
0.59444854
0.59366041
0.59296906
0.59236274
0.59183047
0.5913621
0.59094829
0.59058053
0.59025108
0.58995297
0.58967993
0.58942633
0.58918714
0.58895787
0.58873452
0.58851348
0.58829148
0.58806548
0.58783267
0.58759037
0.58733591
0.58706657
0.58677948
0.58647143
0.58613863
0.58577643
0.58537898
0.58493933
0.58445188
0.58391525
0.58332621
0.58266411
0.58190817
0.5811076
0.58032358
0.57932762
0.57788529
0.65331247
0.76884929
0.71252929
0.73644746
0.71872634
0.7213868
0.71489543
0.711772
0.70744906
0.70321893
0.69878963
0.69422251
0.68951786
0.68469325
0.67976511
0.67475389
0.66968253
0.66457663
0.65946398
0.65437425
0.64933833
0.64438773
0.63955375
0.63486664
0.63035475
0.62604363
0.62195534
0.61810785
0.61451465
0.61118458
0.60812184
0.60532624
0.6027936
0.6005162
0.59848342
0.5966823
0.59509812
0.59371504
0.59251649
0.59148574
0.59060614
0.58986153
0.58923638
0.58871599
0.58828663
0.58793553
0.58765099
0.58742234
0.58723992
0.58709501
0.58697984
0.58688747
0.58681176
0.58674727
0.58668922
0.58663338
0.58657607
0.58651404
0.5864444
0.58636458
0.58627218
0.58616506
0.58604111
0.58589821
0.58573417
0.58554664
0.58533299
0.58509018
0.58481434
0.58450012
0.58414093
0.58373179
0.58327161
0.58275524
0.58216139
0.5814791
0.58076569
0.58004996
0.57906673
0.57769755
0.65200111
0.76534781
0.70892605
0.73155632
0.71415668
0.71557265
0.70895373
0.70503612
0.70016697
0.69530029
0.69023679
0.68503314
0.67969805
0.67425726
0.66873636
0.66316519
0.65757634
0.65200501
0.64648825
0.6410642
0.63577105
0.63064592
0.62572369
0.62103586
0.61660955
0.61246672
0.6086236
0.60509054
0.60187202
0.59896702
0.59636954
0.59406926
0.59205237
0.59030233
0.58880062
0.5875275
0.58646261
0.58558551
0.58487614
0.58431513
0.58388407
0.58356569
0.58334396
0.58320413
0.58313278
0.58311777
0.58314818
0.58321429
0.58330747
0.58342012
0.58354554
0.5836779
0.58381213
0.58394384
0.58406921
0.58418496
0.58428827
0.58437673
0.58444822
0.58450087
0.58453297
0.58454304
0.58452954
0.58449094
0.58442555
0.58433152
0.58420681
0.58404904
0.58385506
0.58362013
0.58333844
0.58300586
0.58262055
0.58217413
0.5816467
0.58104147
0.58041979
0.57976567
0.57879007
0.57751191
0.64997568
0.76042499
0.70447133
0.72528971
0.70822195
0.708224
0.70132797
0.6965238
0.6909582
0.68533799
0.6795281
0.67358898
0.66754142
0.66142236
0.65526976
0.64912582
0.64303538
0.6370451
0.63120213
0.62555256
0.62013982
0.61500315
0.61017619
0.60568587
0.6015518
0.59778593
0.59439276
0.59136978
0.58870826
0.58639424
0.58440951
0.58273274
0.58134042
0.58020783
0.57930979
0.57862132
0.57811816
0.57777714
0.57757644
0.57749583
0.57751666
0.577622
0.57779653
0.57802654
0.57829982
0.5786056
0.57893438
0.5792779
0.57962897
0.57998139
0.58032983
0.58066973
0.58099724
0.5813091
0.58160255
0.5818753
0.58212542
0.58235133
0.58255167
0.5827253
0.58287118
0.58298844
0.58307613
0.58313326
0.58315866
0.58315096
0.58310864
0.58302992
0.5829122
0.58275153
0.58254335
0.58228451
0.58197148
0.58159191
0.58112906
0.58060253
0.58007435
0.57947881
0.57851135
0.57732729
0.64717415
0.75371261
0.69884976
0.71739132
0.70060373
0.69900762
0.69164223
0.68582956
0.67940467
0.67290114
0.66623207
0.6594671
0.65264412
0.64581557
0.63903595
0.63236316
0.62585616
0.61957301
0.61356855
0.60789225
0.60258625
0.59768389
0.59320883
0.58917473
0.58558555
0.58243634
0.57971432
0.57740028
0.57547
0.57389569
0.5726473
0.57169369
0.57100357
0.57054635
0.57029265
0.57021477
0.57028694
0.57048551
0.57078894
0.57117785
0.57163493
0.57214481
0.57269398
0.57327061
0.57386441
0.5744665
0.57506927
0.5756662
0.5762518
0.57682143
0.57737126
0.57789807
0.57839927
0.57887274
0.57931679
0.57973009
0.5801116
0.58046051
0.5807762
0.5810582
0.58130612
0.58151963
0.58169836
0.58184183
0.58194934
0.58202003
0.58205285
0.58204643
0.58199865
0.58190644
0.58176686
0.58157774
0.58133341
0.5810178
0.58061859
0.58017019
0.57973154
0.57919373
0.57824553
0.57712995
0.64348307
0.74466223
0.69161607
0.70743119
0.69086339
0.68745643
0.67939361
0.67243554
0.66498671
0.6574708
0.64984451
0.64219325
0.63457926
0.62707641
0.61975943
0.61270271
0.60597659
0.5996444
0.59375959
0.5883638
0.58348565
0.57914046
0.57533081
0.57204774
0.56927247
0.56697832
0.56513274
0.56369922
0.56263905
0.56191278
0.56148147
0.5613075
0.56135535
0.56159193
0.5619869
0.56251272
0.56314468
0.56386079
0.56464163
0.56547018
0.56633165
0.56721323
0.56810393
0.56899438
0.56987663
0.570744
0.57159093
0.57241284
0.57320597
0.5739673
0.57469445
0.57538556
0.57603925
0.57665448
0.57723058
0.5777671
0.57826381
0.57872066
0.57913766
0.57951495
0.57985272
0.58015116
0.5804104
0.5806304
0.58081097
0.58095171
0.58105197
0.58111071
0.58112617
0.58109624
0.58101961
0.58089496
0.58071459
0.58046036
0.5801253
0.57975328
0.57939326
0.57890516
0.57798681
0.5769583
0.63865424
0.73306384
0.68224416
0.69484314
0.6784141
0.6729965
0.66396582
0.6557074
0.64707656
0.63843934
0.62980411
0.62128149
0.61296473
0.60495158
0.5973338
0.59019382
0.58360053
0.5776065
0.57224646
0.56753715
0.56347833
0.56005473
0.5572386
0.55499256
0.55327245
0.55202992
0.55121481
0.55077691
0.55066752
0.55084044
0.55125266
0.55186481
0.55264128
0.55355025
0.55456354
0.55565644
0.55680743
0.5579979
0.55921188
0.56043576
0.561658
0.56286891
0.56406041
0.56522582
0.56635967
0.56745756
0.568516
0.56953227
0.57050431
0.57143063
0.57231022
0.57314247
0.57392709
0.57466405
0.57535355
0.57599596
0.57659178
0.57714157
0.57764596
0.5781056
0.57852117
0.57889332
0.57922258
0.57950937
0.57975393
0.5799563
0.58011622
0.58023285
0.58030482
0.58033094
0.58031122
0.58024465
0.58012226
0.57992656
0.5796571
0.57936059
0.57906717
0.57861513
0.57773454
0.57681432
0.63231455
0.72005307
0.6702357
0.67900362
0.66251762
0.65489097
0.64457632
0.63484947
0.62492108
0.61513638
0.6055672
0.59635422
0.58761749
0.57946691
0.57199264
0.56526206
0.55931756
0.55417673
0.54983418
0.54626471
0.5434272
0.54126883
0.53972913
0.53874362
0.53824678
0.5381745
0.53846573
0.53906362
0.53991628
0.54097696
0.54220415
0.54356133
0.54501674
0.54654291
0.54811634
0.54971701
0.55132802
0.55293518
0.55452668
0.55609278
0.5576255
0.5591184
0.56056634
0.56196532
0.56331226
0.56460492
0.5658417
0.56702163
0.56814416
0.56920919
0.5702169
0.57116778
0.57206249
0.57290189
0.57368693
0.57441868
0.57509824
0.57572672
0.57630525
0.57683493
0.57731685
0.57775202
0.57814133
0.57848559
0.57878542
0.57904126
0.57925317
0.57942059
0.57954258
0.57961878
0.57964989
0.57963445
0.57956299
0.57942182
0.57921873
0.57899808
0.57876263
0.57833226
0.57749267
0.57671025
0.62410828
0.70301183
0.65477737
0.65902844
0.64212836
0.63208945
0.62020365
0.60891485
0.59773135
0.58699094
0.57682364
0.56738501
0.55879419
0.55113949
0.54447306
0.53881232
0.53414297
0.53042421
0.52759484
0.52557955
0.52429477
0.52365369
0.52357028
0.52396219
0.52475276
0.52587213
0.52725775
0.5288545
0.53061431
0.53249575
0.53446344
0.53648736
0.5385423
0.54060718
0.54266454
0.54470004
0.54670197
0.54866089
0.55056929
0.55242127
0.55421231
0.55593904
0.55759906
0.55919077
0.56071327
0.56216618
0.56354963
0.56486408
0.56611034
0.56728943
0.5684026
0.56945121
0.57043676
0.5713608
0.57222494
0.57303081
0.57378
0.57447409
0.57511462
0.57570306
0.57624082
0.5767292
0.57716942
0.57756256
0.57790959
0.57821127
0.57846793
0.57867938
0.57884526
0.57896593
0.57904211
0.5790712
0.57904378
0.57895177
0.57881176
0.57866382
0.57848373
0.57807797
0.57728587
0.57663598
0.61340537
0.68100917
0.63445181
0.63353025
0.61579266
0.60323539
0.58971331
0.57704368
0.56499584
0.55388002
0.54383993
0.53499796
0.52741841
0.521117
0.51606443
0.51219539
0.50941809
0.50762393
0.5066961
0.50651665
0.50697167
0.50795495
0.50936999
0.511131
0.51316303
0.51540147
0.51779132
0.52028624
0.52284749
0.52544297
0.52804629
0.53063593
0.53319448
0.53570797
0.53816537
0.54055803
0.54287935
0.54512438
0.54728958
0.54937255
0.55137182
0.55328671
0.55511717
0.55686368
0.55852713
0.56010875
0.56161002
0.56303266
0.56437853
0.5656496
0.56684794
0.56797566
0.5690349
0.57002779
0.57095644
0.57182293
0.57262928
0.57337739
0.57406916
0.57470636
0.57529064
0.57582356
0.57630655
0.57674095
0.57712798
0.57746861
0.57776344
0.57801269
0.57821672
0.57837648
0.5784923
0.57856038
0.57857186
0.5785242
0.57844009
0.57835356
0.57822302
0.57786137
0.57715207
0.57658626
0.59904681
0.65196908
0.60739668
0.60078757
0.58193808
0.56699752
0.55227163
0.53893765
0.52695247
0.51653848
0.50776628
0.50065013
0.49513513
0.49111715
0.48845681
0.48699517
0.48656655
0.48700859
0.48816914
0.48991035
0.49211061
0.49466482
0.49748373
0.50049251
0.50362919
0.50684295
0.51009246
0.51334443
0.51657224
0.51975482
0.52287571
0.52592215
0.52888449
0.53175557
0.53453026
0.5372051
0.53977794
0.54224776
0.54461435
0.54687825
0.54904054
0.55110271
0.55306665
0.55493448
0.55670853
0.55839128
0.55998533
0.56149334
0.56291801
0.56426204
0.56552815
0.56671901
0.56783726
0.56888547
0.56986616
0.57078175
0.57163455
0.5724268
0.5731606
0.57383799
0.5744608
0.5750308
0.5755496
0.57601873
0.57643955
0.5768132
0.57714049
0.57742208
0.57765899
0.57785256
0.57800268
0.57810491
0.57815204
0.57814625
0.57811192
0.57807315
0.57797673
0.57765631
0.5770444
0.57659365
0.57915925
0.61358544
0.5714581
0.55906663
0.53962422
0.52272396
0.50796029
0.49539597
0.48499391
0.4767954
0.47069661
0.46653238
0.46408638
0.46312091
0.46339596
0.4646842
0.46677978
0.46950257
0.47269911
0.47624133
0.48002407
0.4839622
0.48798753
0.49204603
0.49609531
0.5001024
0.50404201
0.50789495
0.51164695
0.51528762
0.51880969
0.52220835
0.5254807
0.52862539
0.53164226
0.53453211
0.53729642
0.53993727
0.54245715
0.54485888
0.54714549
0.5493202
0.55138634
0.5533473
0.55520651
0.5569674
0.55863338
0.56020782
0.56169406
0.56309535
0.56441486
0.5656557
0.56682088
0.5679133
0.56893576
0.56989096
0.57078144
0.57160964
0.57237788
0.57308836
0.5737431
0.574344
0.57489283
0.57539125
0.57584073
0.57624251
0.57659758
0.576907
0.57717222
0.57739468
0.57757387
0.57770559
0.57778539
0.57781953
0.57783098
0.57783186
0.57776079
0.57747738
0.57696463
0.57665723
0.55120352
0.5634231
0.52534831
0.5070718
0.486524
0.47119667
0.45836479
0.44863918
0.44174505
0.43743506
0.43535589
0.43514033
0.43642868
0.43889451
0.44225439
0.44627098
0.4507508
0.45553929
0.46051504
0.465584
0.47067413
0.47573096
0.48071379
0.48559268
0.49034602
0.49495864
0.49942032
0.50372462
0.50786802
0.51184916
0.51566839
0.51932728
0.52282833
0.52617472
0.52937015
0.53241862
0.5353244
0.53809189
0.54072556
0.54322991
0.54560945
0.54786863
0.55001183
0.55204336
0.55396743
0.55578816
0.55750955
0.55913547
0.5606697
0.56211588
0.56347753
0.56475805
0.5659607
0.56708862
0.56814484
0.56913221
0.57005347
0.57091121
0.57170791
0.57244589
0.57312731
0.5737542
0.57432846
0.57485183
0.57532586
0.57575189
0.57613111
0.57646486
0.57675476
0.57700205
0.57720592
0.57736307
0.57747202
0.57754176
0.5775918
0.57762415
0.57757745
0.57734253
0.57693519
0.57672068
0.51110595
0.49888934
0.46182888
0.44410244
0.42683756
0.41480189
0.40665431
0.40218252
0.4007179
0.40167129
0.40447132
0.40863207
0.41375361
0.41952056
0.42569042
0.43208083
0.43855688
0.44502038
0.45140096
0.45764909
0.46373078
0.46962348
0.47531306
0.48079155
0.48605545
0.4911045
0.49594074
0.50056784
0.50499058
0.50921451
0.51324566
0.51709033
0.52075498
0.52424607
0.52757004
0.53073323
0.53374183
0.53660189
0.53931927
0.54189967
0.54434856
0.54667126
0.54887289
0.55095838
0.55293248
0.55479976
0.55656461
0.55823127
0.5598038
0.56128611
0.56268194
0.56399488
0.56522837
0.56638573
0.5674701
0.56848448
0.56943171
0.57031451
0.57113546
0.57189698
0.57260134
0.57325067
0.57384696
0.57439204
0.57488755
0.57533493
0.57573558
0.57609103
0.57640289
0.57667211
0.57689785
0.57707802
0.5772134
0.57731344
0.57739255
0.57744603
0.57742035
0.57723895
0.57693998
0.57682643
0.45009762
0.41761577
0.38808482
0.37338769
0.36269256
0.35805135
0.35762306
0.36049101
0.3656583
0.37236855
0.3800398
0.38825173
0.3967075
0.40520296
0.4136007
0.42181058
0.42977548
0.43746111
0.44484885
0.45193073
0.45870597
0.46517854
0.47135549
0.47724578
0.48285953
0.48820739
0.49330024
0.49814892
0.50276405
0.50715592
0.51133449
0.51530926
0.51908935
0.52268344
0.52609979
0.52934626
0.53243035
0.53535916
0.53813947
0.54077773
0.54328009
0.54565239
0.54790023
0.55002894
0.55204359
0.55394907
0.55575001
0.55745086
0.55905588
0.56056912
0.56199447
0.56333565
0.56459622
0.56577957
0.56688894
0.5679274
0.56889789
0.56980319
0.57064595
0.57142868
0.57215371
0.57282326
0.57343938
0.57400397
0.57451876
0.57498534
0.57540527
0.5757802
0.57611165
0.57640045
0.57664616
0.57684798
0.57700799
0.57713396
0.57723459
0.57730227
0.57729751
0.57717456
0.5769756
0.57690352
0.35513839
0.32152677
0.30405233
0.29971361
0.3012081
0.30757171
0.31680863
0.327663
0.33926471
0.35106837
0.36274196
0.37409237
0.38501377
0.3954544
0.40539545
0.41483783
0.42379394
0.4322825
0.44032542
0.44794584
0.45516697
0.46201137
0.46850062
0.47465508
0.48049384
0.48603472
0.4912943
0.49628799
0.50103012
0.50553398
0.50981195
0.51387557
0.51773556
0.52140196
0.52488416
0.52819095
0.53133059
0.53431084
0.53713901
0.53982202
0.54236638
0.54477827
0.54706355
0.54922778
0.55127625
0.55321398
0.55504578
0.55677619
0.55840958
0.55995009
0.56140171
0.5627682
0.56405318
0.5652601
0.56639225
0.56745274
0.56844454
0.5693705
0.5702333
0.57103549
0.57177946
0.57246748
0.57310164
0.5736839
0.57421607
0.57469984
0.57513691
0.57552893
0.57587737
0.5761831
0.57644638
0.57666768
0.57684944
0.57699679
0.57711352
0.57719259
0.57721021
0.57714355
0.57702302
0.57697745
0.21636809
0.21507783
0.22054963
0.23405505
0.25139941
0.26981155
0.28807861
0.30556289
0.3220379
0.3374427
0.3518037
0.36518206
0.37765195
0.38928886
0.40016469
0.41034551
0.41989109
0.42885494
0.43728481
0.4452232
0.45270801
0.45977303
0.4664485
0.47276153
0.47873647
0.48439533
0.48975799
0.49484249
0.49966529
0.5042414
0.5085846
0.51270752
0.51662185
0.52033836
0.52386708
0.52721732
0.53039774
0.53341648
0.53628114
0.53899887
0.5415764
0.54402007
0.54633589
0.54852953
0.55060639
0.55257157
0.55442994
0.55618612
0.55784451
0.55940931
0.56088452
0.56227396
0.56358125
0.56480988
0.56596315
0.5670442
0.568056
0.56900141
0.56988316
0.57070381
0.57146577
0.57217134
0.57282265
0.57342168
0.57397029
0.57447025
0.57492327
0.57533095
0.57569465
0.57601542
0.57629411
0.576532
0.57673133
0.57689472
0.57702271
0.57711062
0.57714967
0.57713932
0.57706971
0.57703572
0.091784996
0.12179566
0.15926556
0.19296534
0.2231145
0.24964904
0.27319017
0.29420656
0.31311564
0.33024448
0.34585673
0.36016349
0.37333606
0.38551458
0.39681495
0.40733388
0.41715281
0.42634088
0.43495726
0.44305293
0.45067213
0.45785349
0.46463091
0.47103436
0.47709042
0.48282282
0.48825281
0.49339954
0.49828032
0.50291085
0.50730547
0.51147727
0.51543829
0.51919961
0.52277148
0.52616339
0.5293842
0.53244214
0.53534492
0.53809977
0.54071349
0.54319249
0.5455428
0.54777014
0.54987992
0.55187728
0.5537671
0.55555402
0.55724245
0.5588366
0.56034047
0.56175789
0.5630925
0.56434777
0.56552702
0.56663338
0.56766983
0.56863924
0.56954434
0.57038768
0.57117171
0.57189871
0.57257084
0.57319009
0.57375835
0.57427738
0.57474886
0.57517431
0.575555
0.57589202
0.57618644
0.57643968
0.57665364
0.57682993
0.57696859
0.57706694
0.57712071
0.57712897
0.57710236
0.57706745
0.012288786
0.28501297
0.46695566
0.51762612
0.52733985
0.52735948
0.52736798
0.52897764
0.53086901
0.53268318
0.53436807
0.53601598
0.53756802
0.53909136
0.54059588
0.54209073
0.54357653
0.54505597
0.54653099
0.54800222
0.54946965
0.5509329
0.55239135
0.55384408
0.55529001
0.55672791
0.55815643
0.55957415
0.56097956
0.56237113
0.56374726
0.56510634
0.56644673
0.56776675
0.56906471
0.5703389
0.57158758
0.57280901
0.57400142
0.575163
0.57629194
0.57738642
0.5784446
0.57946461
0.58044461
0.58138275
0.58227719
0.58312615
0.58392786
0.58468062
0.58538283
0.586033
0.58662977
0.58717192
0.58765838
0.58808827
0.58846091
0.58877574
0.58903246
0.58923067
0.58936971
0.5894493
0.58946966
0.58943111
0.5893336
0.58917714
0.58895921
0.58868042
0.58833051
0.58792321
0.58741979
0.58689483
0.5861869
0.58557197
0.58454786
0.58399149
0.58245969
0.58212404
0.58000956
0.5798869
0.047386944
0.36927582
0.52235668
0.54925143
0.54932206
0.54676197
0.54599584
0.54627545
0.54651589
0.54681632
0.54721712
0.54776903
0.54843353
0.54918014
0.54998353
0.55083972
0.55174362
0.55269273
0.55368284
0.55470942
0.55576837
0.55685577
0.55796788
0.55910106
0.56025177
0.5614166
0.56259221
0.56377538
0.56496298
0.56615197
0.5673394
0.56852238
0.56969812
0.5708639
0.57201705
0.57315496
0.57427509
0.57537491
0.57645196
0.57750382
0.57852808
0.5795224
0.58048443
0.58141191
0.58230259
0.58315429
0.58396488
0.58473228
0.58545453
0.58612975
0.58675619
0.58733226
0.58785653
0.58832773
0.58874479
0.58910682
0.58941317
0.58966336
0.58985716
0.58999425
0.59007407
0.5900965
0.59006189
0.58997068
0.58982294
0.58961863
0.58935554
0.58903372
0.58864422
0.58819814
0.58766211
0.58710023
0.58636943
0.5857185
0.58468627
0.58408583
0.58256138
0.58219055
0.58005392
0.57996177
0.094409137
0.44119369
0.54495281
0.55786
0.55571713
0.55442865
0.5543561
0.55482096
0.55510318
0.55549702
0.55587562
0.55631705
0.55678297
0.55729912
0.55785586
0.55845648
0.55909745
0.55977952
0.56050085
0.56125917
0.5620523
0.5628779
0.56373346
0.56461632
0.56552372
0.56645286
0.56740085
0.56836474
0.5693416
0.57032843
0.57132225
0.57232008
0.57331894
0.57431585
0.57530785
0.576292
0.5772654
0.57822514
0.57916836
0.58009224
0.58099397
0.58187082
0.58272008
0.5835391
0.58432532
0.58507623
0.5857894
0.58646251
0.58709335
0.58767985
0.58822011
0.5887124
0.58915519
0.58954715
0.58988718
0.59017434
0.59040799
0.59058771
0.59071333
0.59078457
0.59080097
0.59076252
0.59066968
0.59052296
0.59032253
0.59006832
0.58975829
0.58939211
0.58896165
0.58847627
0.58790611
0.58730795
0.5865519
0.58586855
0.5848222
0.58418341
0.58265786
0.58225791
0.58009844
0.58002989
0.16708928
0.49926052
0.55843701
0.56581844
0.56236767
0.56222132
0.5622714
0.56276431
0.56293646
0.56327587
0.56355439
0.56391005
0.56427715
0.56468439
0.56511454
0.56557422
0.5660612
0.56657791
0.5671238
0.56769822
0.5683006
0.56893015
0.56958585
0.57026648
0.57097061
0.57169663
0.57244275
0.57320699
0.57398723
0.57478119
0.57558646
0.57640051
0.57722072