/*--------------------------------*- C++ -*----------------------------------*\
| =========                 |                                                 |
| \\      /  F ield         | OpenFOAM: The Open Source CFD Toolbox           |
|  \\    /   O peration     | Version:  2512                                  |
|   \\  /    A nd           | Website:  www.openfoam.com                      |
|    \\/     M anipulation  |                                                 |
\*---------------------------------------------------------------------------*/
FoamFile
{
    version     2.0;
    format      ascii;
    arch        "LSB;label=32;scalar=64";
    class       volScalarField;
    location    "0.141";
    object      nut;
}
// * * * * * * * * * * * * * * * * * * * * * * * * * * * * * * * * * * * * * //

dimensions      [0 2 -1 0 0 0 0];

internalField   nonuniform List<scalar> 
16000
(
5.7779268e-07
1.1011759e-05
2.0239582e-05
2.3091264e-05
1.8547959e-05
2.5140838e-05
1.7859421e-05
2.4560595e-05
1.9072584e-05
2.6520268e-05
2.2155527e-05
2.6158603e-05
2.3730653e-05
2.4363974e-05
2.3487894e-05
2.3329131e-05
2.3055001e-05
2.2964119e-05
2.295241e-05
2.3040264e-05
2.3219863e-05
2.3489772e-05
2.3847225e-05
2.4292005e-05
2.4825848e-05
2.5454362e-05
2.6185151e-05
2.7030521e-05
2.8005547e-05
2.9126459e-05
3.0411037e-05
3.1883e-05
3.3573034e-05
3.5518985e-05
3.7767468e-05
4.0374105e-05
4.3405175e-05
4.6939708e-05
5.107558e-05
5.5934181e-05
6.1657986e-05
6.8414721e-05
7.6416003e-05
8.592121e-05
9.7239164e-05
0.00011074033
0.00012688431
0.00014623143
0.00016946425
0.00019741492
0.00023110235
0.00027177722
0.0003209699
0.00038055767
0.00045284447
0.00054067066
0.00064755175
0.00077785961
0.00093706393
0.0010191817
0.0010190935
0.0010189698
0.0010188041
0.0010185658
0.0010182517
0.0010178517
0.0010173572
0.0010167606
0.0010160532
0.0010152208
0.0010142332
0.0010130221
0.0010115426
0.0010101627
0.0010089695
0.0010078662
0.0010068366
0.0010063593
0.0010056331
0.0010067421
5.0226288e-07
1.0433095e-05
1.9578605e-05
2.0935149e-05
1.6767671e-05
2.2562782e-05
1.5883988e-05
2.1516287e-05
1.6886294e-05
2.3427988e-05
2.0094826e-05
2.3604765e-05
2.1731335e-05
2.2098681e-05
2.1410457e-05
2.1200755e-05
2.097057e-05
2.0877009e-05
2.0868697e-05
2.0948877e-05
2.1114996e-05
2.1365233e-05
2.1697381e-05
2.2111319e-05
2.2608291e-05
2.3193516e-05
2.3873561e-05
2.4659488e-05
2.5565555e-05
2.6607604e-05
2.7802184e-05
2.9170961e-05
3.0742343e-05
3.2551373e-05
3.4641673e-05
3.7065555e-05
3.9885772e-05
4.3176608e-05
4.7029239e-05
5.1558603e-05
5.6901686e-05
6.3216463e-05
7.0702277e-05
7.9606515e-05
9.0225952e-05
0.0001029129
0.00011810602
0.00013634198
0.00015827609
0.00018470793
0.00021661697
0.0002552088
0.00030196085
0.00035868905
0.00042762429
0.00051151939
0.00061378501
0.0007386583
0.00089142633
0.0010184603
0.0010183904
0.0010182472
0.0010180693
0.0010178204
0.0010174973
0.0010170896
0.0010165883
0.0010159854
0.0010152722
0.0010144351
0.0010134498
0.0010122587
0.0010108094
0.0010094858
0.0010083449
0.001007287
0.0010063316
0.0010056933
0.0010053689
0.001006487
4.3371402e-07
9.9932278e-06
1.8558595e-05
1.921273e-05
1.5050408e-05
1.9914062e-05
1.4161938e-05
1.8721944e-05
1.5200774e-05
2.0565759e-05
1.8339384e-05
2.1028047e-05
1.9701029e-05
1.9801261e-05
1.9268807e-05
1.9039495e-05
1.884516e-05
1.8759533e-05
1.8756868e-05
1.88339e-05
1.8989556e-05
1.92224e-05
1.9530519e-05
1.9914099e-05
2.0374054e-05
2.0915435e-05
2.1544126e-05
2.2270161e-05
2.3106841e-05
2.4069636e-05
2.5174287e-05
2.6440846e-05
2.7895842e-05
2.9571909e-05
3.1510017e-05
3.3759433e-05
3.637979e-05
3.9441663e-05
4.303061e-05
4.7255125e-05
5.2247698e-05
5.815882e-05
6.517734e-05
7.3539454e-05
8.3532342e-05
9.549362e-05
0.00010984433
0.00012710128
0.00014789699
0.00017300446
0.00020337029
0.00024016253
0.00028481412
0.00033908968
0.00040515891
0.00048570071
0.00058403677
0.00070429674
0.00085162481
0.0010177833
0.0010177319
0.0010175641
0.0010173661
0.0010170992
0.0010167595
0.0010163368
0.0010158215
0.0010152057
0.0010144805
0.0010136321
0.0010126395
0.0010114577
0.0010100379
0.0010087801
0.0010076989
0.001006703
0.0010057903
0.0010050942
0.0010049575
0.0010056851
3.9643537e-07
9.6685653e-06
1.765741e-05
1.8420736e-05
1.3582207e-05
1.7615467e-05
1.2637149e-05
1.6374691e-05
1.3697768e-05
1.8131013e-05
1.6757411e-05
1.8743727e-05
1.7826264e-05
1.7731916e-05
1.731723e-05
1.7089144e-05
1.6926226e-05
1.6852963e-05
1.6857787e-05
1.6934216e-05
1.7081931e-05
1.7300023e-05
1.7586944e-05
1.7943332e-05
1.836993e-05
1.8871765e-05
1.9454286e-05
2.0126723e-05
2.0901466e-05
2.179368e-05
2.2818582e-05
2.3994855e-05
2.5347509e-05
2.6907108e-05
2.8712387e-05
3.0809996e-05
3.325688e-05
3.6120722e-05
3.9482643e-05
4.3445156e-05
4.8137328e-05
5.3704023e-05
6.0325718e-05
6.8228704e-05
7.7693296e-05
8.9045855e-05
0.00010269355
0.0001191378
0.00013899364
0.00016301464
0.00019212251
0.00022745789
0.00027042114
0.00032274033
0.00038654231
0.00046445442
0.00055973606
0.0006764438
0.00081963192
0.0009955905
0.0010171169
0.0010169216
0.0010166987
0.0010164091
0.0010160485
0.0010156067
0.0010150736
0.0010144409
0.0010137
0.001012837
0.0010118326
0.0010106561
0.0010092624
0.0010080722
0.0010070547
0.0010061228
0.0010052434
0.0010045462
0.0010045235
0.0010049108
3.4217168e-07
9.4338338e-06
1.6898646e-05
1.8509e-05
1.3437504e-05
1.5600892e-05
1.1298636e-05
1.435771e-05
1.2404745e-05
1.603462e-05
1.5352662e-05
1.6686771e-05
1.6076788e-05
1.5850284e-05
1.5522401e-05
1.5308666e-05
1.517079e-05
1.5109389e-05
1.5119526e-05
1.5194005e-05
1.5332848e-05
1.5535836e-05
1.580182e-05
1.6131933e-05
1.6526884e-05
1.6991718e-05
1.7531552e-05
1.8154985e-05
1.8873497e-05
1.9701895e-05
2.0655057e-05
2.1750537e-05
2.3012085e-05
2.4468489e-05
2.6156566e-05
2.8120699e-05
3.0415443e-05
3.3106159e-05
3.627068e-05
4.0005855e-05
4.4437903e-05
4.9707526e-05
5.5988725e-05
6.3498539e-05
7.2512145e-05
8.3347216e-05
9.6399538e-05
0.00011215803
0.00013122328
0.00015433389
0.00018239124
0.00021651419
0.0002580768
0.00030877794
0.00037071058
0.00044646107
0.00053923914
0.00065304236
0.00079285396
0.00096486947
0.001016546
0.0010163201
0.0010160669
0.0010157498
0.0010153633
0.0010148976
0.0010143423
0.0010136884
0.0010129277
0.0010120467
0.0010110251
0.0010098485
0.0010084914
0.0010073706
0.0010064197
0.0010055517
0.0010047075
0.0010040313
0.0010040179
0.0010041652
3.0586168e-07
9.2767275e-06
1.6286183e-05
1.8242948e-05
1.3245445e-05
1.3843929e-05
1.0737787e-05
1.268692e-05
1.1692383e-05
1.431324e-05
1.4124538e-05
1.4878751e-05
1.4473315e-05
1.4168025e-05
1.3894605e-05
1.3696989e-05
1.3575419e-05
1.352176e-05
1.3533809e-05
1.3604536e-05
1.3733959e-05
1.392241e-05
1.4168996e-05
1.4475122e-05
1.4841658e-05
1.5273587e-05
1.5775723e-05
1.6356235e-05
1.702571e-05
1.7798571e-05
1.8689535e-05
1.9715248e-05
2.0898483e-05
2.2266563e-05
2.3854753e-05
2.5705583e-05
2.7871615e-05
3.0416399e-05
3.3415717e-05
3.6961582e-05
4.1177637e-05
4.6201943e-05
5.2204419e-05
5.9393775e-05
6.804193e-05
7.846087e-05
9.1037981e-05
0.00010625333
0.0001246968
0.00014709764
0.00017434276
0.00020753667
0.00024803564
0.00029751939
0.00035805967
0.00043221684
0.00052316875
0.00063487479
0.00077227434
0.00094150626
0.001016011
0.0010157519
0.001015464
0.001015115
0.0010146986
0.0010142052
0.001013624
0.0010129454
0.0010121614
0.0010112597
0.0010102178
0.0010090338
0.0010077289
0.0010066796
0.001005797
0.0010049929
0.0010041897
0.0010035442
0.0010035162
0.0010034613
2.8394843e-07
9.1843107e-06
1.5803718e-05
1.7219856e-05
1.3087104e-05
1.223247e-05
1.0733204e-05
1.1678691e-05
1.1207153e-05
1.2726379e-05
1.3003866e-05
1.3271649e-05
1.2972975e-05
1.2634598e-05
1.2393508e-05
1.2213425e-05
1.2105152e-05
1.2058999e-05
1.2073423e-05
1.2141933e-05
1.2264171e-05
1.2440964e-05
1.2671645e-05
1.2881163e-05
1.3214623e-05
1.3610707e-05
1.4073664e-05
1.4610904e-05
1.5231994e-05
1.5950645e-05
1.6781377e-05
1.7739962e-05
1.8848281e-05
2.0132273e-05
2.1625777e-05
2.3369644e-05
2.5414579e-05
2.7822357e-05
3.0667461e-05
3.4294854e-05
3.8337258e-05
4.3165561e-05
4.8948013e-05
5.5886202e-05
6.4249854e-05
7.4348181e-05
8.6563053e-05
0.00010136902
0.00011934841
0.00014122632
0.00016788041
0.0002004075
0.00024015369
0.00028878839
0.00034837304
0.0004214553
0.0005111966
0.00062153595
0.00075739086
0.00092487454
0.0010155089
0.0010152137
0.0010148873
0.0010145025
0.0010140526
0.0010135279
0.0010129177
0.0010122114
0.0010114009
0.0010104762
0.0010094132
0.001008212
0.0010069836
0.0010060073
0.0010051936
0.0010044533
0.0010036976
0.0010030833
0.0010030129
0.0010027979
2.5150493e-07
9.1312798e-06
1.5383104e-05
1.5623728e-05
1.1740855e-05
1.0655019e-05
9.0596466e-06
1.0377426e-05
9.4906297e-06
1.1464717e-05
1.1864961e-05
1.1787465e-05
1.1535117e-05
1.1207176e-05
1.099384e-05
1.0836474e-05
1.0744236e-05
1.070867e-05
1.0663225e-05
1.0716876e-05
1.0823923e-05
1.0984376e-05
1.1196337e-05
1.1459423e-05
1.1777784e-05
1.2154451e-05
1.2593844e-05
1.3103359e-05
1.3692046e-05
1.4373217e-05
1.5161626e-05
1.6072607e-05
1.7127642e-05
1.8351822e-05
1.9778176e-05
2.1446512e-05
2.3406439e-05
2.5718653e-05
2.8457215e-05
3.1712302e-05
3.5593837e-05
4.0241041e-05
4.5822302e-05
5.29765e-05
6.1137374e-05
7.1011582e-05
8.2978718e-05
9.7511073e-05
0.00011518674
0.00013673226
0.00016302157
0.00019515083
0.0002344644
0.00028263085
0.00034171313
0.0004142606
0.00050343537
0.00061317584
0.00074840062
0.00091522929
0.0010150331
0.0010146993
0.0010143311
0.0010139074
0.0010134209
0.0010128621
0.0010122202
0.001011484
0.0010106444
0.0010096942
0.0010086132
0.0010073875
0.0010062605
0.0010053591
0.0010046137
0.0010039373
0.0010032361
0.0010026527
0.0010025241
0.0010020987
2.2585086e-07
9.0972966e-06
1.4927152e-05
1.3680288e-05
9.6205382e-06
9.4934721e-06
7.4941272e-06
8.9115771e-06
9.0605015e-06
1.0270102e-05
1.0714219e-05
1.0410236e-05
1.0182484e-05
9.8884984e-06
9.7022909e-06
9.5022422e-06
9.4023663e-06
9.3638192e-06
9.379595e-06
9.4463678e-06
9.5592304e-06
9.7211533e-06
9.9296337e-06
1.0185093e-05
1.0491604e-05
1.0853021e-05
1.1273873e-05
1.1761612e-05
1.2324964e-05
1.2976835e-05
1.373231e-05
1.4606518e-05
1.5620826e-05
1.6799744e-05
1.817581e-05
1.9788211e-05
2.16859e-05
2.3928993e-05
2.6590974e-05
2.9761267e-05
3.3550187e-05
3.8094986e-05
4.3566841e-05
5.0164279e-05
5.8141803e-05
6.7816095e-05
8.0270475e-05
9.4663083e-05
0.00011219345
0.00013359485
0.00015974337
0.00019174167
0.00023094078
0.0002790182
0.00033805032
0.00041060302
0.00049985666
0.00060976944
0.00074528382
0.00091255583
0.001014578
0.0010142033
0.0010137908
0.0010133257
0.0010128002
0.001012205
0.0010115295
0.0010107619
0.0010098916
0.0010089128
0.0010078186
0.0010065957
0.0010055654
0.0010047404
0.0010040621
0.0010034491
0.0010028086
0.0010022524
0.0010020553
0.0010014561
2.0853777e-07
9.0555153e-06
1.3220354e-05
1.1957546e-05
7.7765751e-06
8.4471493e-06
6.787338e-06
8.0207319e-06
8.3853181e-06
9.1798292e-06
9.5750399e-06
9.1576986e-06
8.9398642e-06
8.6007384e-06
8.407414e-06
8.2791991e-06
8.2130321e-06
8.1999232e-06
8.23285e-06
8.3122231e-06
8.432393e-06
8.5951322e-06
8.8016491e-06
9.0517993e-06
9.3499277e-06
9.7003288e-06
1.0107713e-05
1.0579734e-05
1.1124931e-05
1.1755839e-05
1.248792e-05
1.3336386e-05
1.4322683e-05
1.5470988e-05
1.6813636e-05
1.8389563e-05
2.0247474e-05
2.2447412e-05
2.5063179e-05
2.8184634e-05
3.1922218e-05
3.6412839e-05
4.1830854e-05
4.8374974e-05
5.6302091e-05
6.5931025e-05
7.7654957e-05
9.1935609e-05
0.00011035856
0.00013180502
0.00015803883
0.00019017611
0.00022958371
0.00027795835
0.00033740249
0.0004105142
0.00050051095
0.00061139311
0.00074815127
0.00091700698
0.0010141372
0.0010137194
0.001013261
0.0010127527
0.0010121865
0.0010115533
0.0010108427
0.0010100428
0.0010091419
0.0010081322
0.0010070235
0.00100584
0.0010049038
0.0010041555
0.0010035426
0.0010029915
0.0010024173
0.0010018857
0.0010016162
0.0010010179
1.8988825e-07
9.0045711e-06
1.0482443e-05
9.8308558e-06
6.4361042e-06
7.5178527e-06
6.1925526e-06
7.2026574e-06
7.83856e-06
8.1834034e-06
8.4555243e-06
7.9317199e-06
7.6700793e-06
7.4306046e-06
7.2849116e-06
7.1959e-06
7.1579388e-06
7.1676113e-06
7.2173072e-06
7.3063285e-06
7.4330997e-06
7.5989846e-06
7.805591e-06
8.0533895e-06
8.346842e-06
8.6907156e-06
9.0900318e-06
9.5526895e-06
1.0087227e-05
1.0705859e-05
1.1365896e-05
1.2190015e-05
1.3150294e-05
1.4270523e-05
1.5582807e-05
1.7125847e-05
1.8948162e-05
2.1109765e-05
2.3684894e-05
2.6764113e-05
3.0458993e-05
3.5181528e-05
4.0601209e-05
4.7158885e-05
5.5113952e-05
6.478858e-05
7.6587045e-05
9.0981911e-05
0.00010856917
0.00013009191
0.00015789269
0.00019044151
0.00023038462
0.00027944872
0.00033977567
0.00041401245
0.00050543362
0.00061810611
0.00075709534
0.00092871634
0.0010137047
0.0010132419
0.0010127367
0.0010121842
0.0010115762
0.0010109041
0.0010101577
0.0010093249
0.0010083942
0.0010073553
0.0010062247
0.0010051265
0.0010042798
0.0010036077
0.0010030583
0.0010025665
0.0010020635
0.0010015721
0.0010012311
0.0010006261
1.7476786e-07
8.9514795e-06
8.2729027e-06
8.3664895e-06
5.7618664e-06
6.6569824e-06
5.6802987e-06
6.4872014e-06
7.2800224e-06
7.2533833e-06
7.2417116e-06
6.7948692e-06
6.5803155e-06
6.4019039e-06
6.2968714e-06
6.2409188e-06
6.2291122e-06
6.256884e-06
6.3209989e-06
6.4210064e-06
6.5553726e-06
6.7258914e-06
6.9350445e-06
7.1838036e-06
7.4767591e-06
7.7854703e-06
8.1755565e-06
8.6285413e-06
9.1528281e-06
9.7601883e-06
1.0464783e-05
1.1285031e-05
1.2241709e-05
1.3358683e-05
1.4668376e-05
1.6209922e-05
1.8032479e-05
2.0196913e-05
2.2779019e-05
2.5871361e-05
2.9588244e-05
3.4072531e-05
3.9499302e-05
4.607857e-05
5.4074158e-05
6.4368767e-05
7.6352196e-05
9.0991428e-05
0.00010889302
0.00013082282
0.00015771666
0.0001925249
0.00023333617
0.00028348995
0.00034518142
0.00042112454
0.00051467237
0.00062998511
0.00077223386
0.00094785439
0.0010132747
0.0010127652
0.0010122131
0.0010116159
0.0010109658
0.0010102544
0.001009472
0.0010086064
0.0010076467
0.0010065862
0.0010054346
0.0010044583
0.0010036971
0.0010030992
0.0010026121
0.001002176
0.0010017399
0.0010013004
0.0010009166
0.0010003037
1.6134759e-07
8.8728431e-06
6.5814201e-06
7.3488284e-06
5.1348845e-06
5.8860278e-06
5.2368942e-06
5.8499036e-06
6.6134124e-06
6.1995973e-06
6.1452493e-06
5.7999764e-06
5.6288511e-06
5.5001712e-06
5.4302036e-06
5.4027469e-06
5.4132674e-06
5.4592356e-06
5.5375983e-06
5.6488024e-06
5.7921921e-06
5.9696957e-06
6.158141e-06
6.4057705e-06
6.6974118e-06
7.037271e-06
7.4324122e-06
7.8903902e-06
8.4197998e-06
9.0325878e-06
9.7430483e-06
1.0569368e-05
1.1533554e-05
1.2659846e-05
1.3981244e-05
1.5537684e-05
1.7379496e-05
1.9568895e-05
2.2183922e-05
2.5320135e-05
2.9094754e-05
3.3653886e-05
3.9181599e-05
4.5893214e-05
5.4060803e-05
6.4022836e-05
7.6199872e-05
9.1100473e-05
0.00011031414
0.000132839
0.00016048063
0.00019443318
0.00023842265
0.00029007393
0.00035362177
0.00043186677
0.0005282637
0.00064709423
0.00079367205
0.000974584
0.0010128417
0.0010122846
0.001011686
0.0010110444
0.0010103524
0.001009602
0.001008784
0.0010078867
0.001006898
0.0010058253
0.0010047138
0.0010038379
0.0010031582
0.0010026312
0.0010022056
0.0010018226
0.001001447
0.0010010715
0.0010006853
0.0010000741
1.4946662e-07
8.7394665e-06
5.2830321e-06
6.4252203e-06
4.5716913e-06
5.1978183e-06
4.8583509e-06
5.1987817e-06
5.7776108e-06
5.2839694e-06
5.184039e-06
4.9306135e-06
4.8002202e-06
4.7130946e-06
4.6741549e-06
4.6723431e-06
4.7038072e-06
4.7670442e-06
4.8599979e-06
4.9649064e-06
5.1133968e-06
5.2960329e-06
5.5151132e-06
5.7736258e-06
6.075855e-06
6.4263584e-06
6.8320888e-06
7.3011926e-06
7.842465e-06
8.4679996e-06
9.192211e-06
1.0033521e-05
1.0964716e-05
1.2100339e-05
1.3433291e-05
1.5004286e-05
1.6865016e-05
1.9079096e-05
2.1726839e-05
2.4907277e-05
2.8741519e-05
3.3633383e-05
3.9312127e-05
4.6216916e-05
5.462912e-05
6.4896835e-05
7.7460583e-05
9.2851191e-05
0.00011171889
0.00013610878
0.00016472624
0.00019989471
0.00024313656
0.00029917809
0.00036508291
0.00044623715
0.00054622371
0.0006694743
0.0008214879
0.0010090443
0.0010124011
0.0010117959
0.0010111519
0.0010104667
0.0010097337
0.0010089449
0.0010080919
0.0010071654
0.0010061518
0.0010050617
0.0010040534
0.00100327
0.0010026653
0.0010022045
0.0010018391
0.0010015079
0.0010011824
0.001000874
0.001000534
0.0009999433
1.3895652e-07
8.5200073e-06
4.305312e-06
5.5991587e-06
4.0669629e-06
4.5859102e-06
4.5260228e-06
4.4924995e-06
4.9367439e-06
4.4693374e-06
4.3527366e-06
4.1748103e-06
4.0827099e-06
4.0312964e-06
4.0203874e-06
4.042218e-06
4.0937457e-06
4.1577346e-06
4.2606317e-06
4.3941111e-06
4.5590583e-06
4.75701e-06
4.9909155e-06
5.2639279e-06
5.5808539e-06
5.9464834e-06
6.3678123e-06
6.8328776e-06
7.3861093e-06
8.0242195e-06
8.7616801e-06
9.6169504e-06
1.0612625e-05
1.177712e-05
1.3144367e-05
1.4756431e-05
1.6667349e-05
1.8943131e-05
2.1667271e-05
2.4943789e-05
2.8899323e-05
3.3693464e-05
3.9519313e-05
4.6614818e-05
5.5273252e-05
6.6408472e-05
7.946274e-05
9.5466313e-05
0.00011510095
0.00013920763
0.00017040872
0.00020706601
0.00025215649
0.00030763538
0.00037951955
0.00046419689
0.00056852519
0.00069711577
0.0008556962
0.0010125791
0.0010119483
0.0010112962
0.0010106085
0.0010098809
0.0010091081
0.0010082825
0.0010073953
0.0010064404
0.0010054146
0.0010043346
0.0010034542
0.0010027568
0.0010022203
0.0010018193
0.0010015112
0.0010012316
0.0010009482
0.0010006955
0.0010004263
0.0009998502
1.2972257e-07
8.2171666e-06
3.6870914e-06
4.8643794e-06
3.6166025e-06
4.0430035e-06
4.0092814e-06
3.8539295e-06
4.1282684e-06
3.7507498e-06
3.6414334e-06
3.5235514e-06
3.4670998e-06
3.4472053e-06
3.4620702e-06
3.4933642e-06
3.5584397e-06
3.6531166e-06
3.7766133e-06
3.9291753e-06
4.1122698e-06
4.3279115e-06
4.5794279e-06
4.8702304e-06
5.193733e-06
5.574623e-06
6.0115232e-06
6.5125438e-06
7.0878998e-06
7.7497802e-06
8.5130528e-06
9.3969434e-06
1.0424992e-05
1.1626709e-05
1.3038375e-05
1.470361e-05
1.6679345e-05
1.9034695e-05
2.1856585e-05
2.5255192e-05
2.93622e-05
3.4345194e-05
4.0409766e-05
4.780445e-05
5.6838942e-05
6.7893345e-05
8.2158758e-05
9.8897489e-05
0.00011944317
0.00014468751
0.00017570477
0.00021587471
0.00026313756
0.00032130889
0.00039291562
0.00048564566
0.00059506788
0.00072992419
0.00089620595
0.0010121477
0.0010114799
0.001010784
0.0010100545
0.0010092864
0.0010084752
0.0010076145
0.0010066956
0.0010057126
0.0010046805
0.0010036901
0.0010029143
0.0010022989
0.0010018247
0.0010014765
0.0010012195
0.0010009895
0.0010007471
0.0010005406
0.0010003375
0.00099986078
1.2180179e-07
7.3900053e-06
3.2375404e-06
4.20715e-06
3.2159578e-06
3.4104808e-06
3.551726e-06
3.2691288e-06
3.3975417e-06
3.1271497e-06
3.039833e-06
2.9695756e-06
2.9457215e-06
2.9543385e-06
2.9783269e-06
3.0397634e-06
3.129639e-06
3.2467423e-06
3.3911515e-06
3.5637997e-06
3.7666624e-06
4.0020136e-06
4.2653819e-06
4.5739038e-06
4.9267993e-06
5.3297446e-06
5.7895808e-06
6.3147222e-06
6.915605e-06
7.6052e-06
8.3988606e-06
9.3166383e-06
1.0383146e-05
1.1629373e-05
1.3037746e-05
1.4752337e-05
1.6788463e-05
1.9218835e-05
2.2267313e-05
2.5811977e-05
3.0100239e-05
3.5307604e-05
4.165324e-05
4.9398924e-05
5.8870009e-05
7.0469359e-05
8.4691338e-05
0.00010214276
0.00012467311
0.00015122121
0.00018385519
0.00022398859
0.00027595298
0.00033719748
0.00041260083
0.0005103919
0.00062564017
0.00076767509
0.00094278323
0.0010117008
0.0010109957
0.0010102587
0.0010094899
0.0010086838
0.0010078358
0.0010069414
0.0010059949
0.0010049927
0.0010039607
0.001003114
0.0010024337
0.0010018951
0.0010014791
0.001001177
0.0010009628
0.0010007758
0.0010005754
0.0010004198
0.0010002791
0.00099994921
1.1540956e-07
5.363587e-06
2.8524308e-06
3.6115552e-06
2.8676266e-06
2.8272911e-06
3.0954831e-06
2.7393372e-06
2.7701887e-06
2.5949676e-06
2.5367224e-06
2.5055632e-06
2.5040658e-06
2.5318709e-06
2.5916057e-06
2.6791687e-06
2.7926295e-06
2.9317635e-06
3.0973768e-06
3.2908327e-06
3.5094127e-06
3.7639861e-06
4.0546748e-06
4.3855157e-06
4.7613471e-06
5.1880511e-06
5.6727934e-06
6.224324e-06
6.8534145e-06
7.556993e-06
8.3790642e-06
9.3281111e-06
1.0429746e-05
1.1716061e-05
1.3227203e-05
1.5013366e-05
1.7136625e-05
1.967469e-05
2.2724002e-05
2.6403736e-05
3.0861894e-05
3.6542085e-05
4.3206377e-05
5.1349912e-05
6.1314754e-05
7.3526195e-05
8.8507428e-05
0.0001069026
0.00013069242
0.00015869527
0.00019313183
0.00023549249
0.00029041336
0.00035507958
0.00043471723
0.00053281897
0.00065988379
0.0008099652
0.00099498218
0.0010112402
0.0010104971
0.001009722
0.0010089163
0.0010080751
0.0010071931
0.0010062663
0.0010052939
0.0010042881
0.001003342
0.001002601
0.0010020094
0.0010015421
0.001001182
0.0010009209
0.001000741
0.001000588
0.0010004252
0.0010003077
0.0010002359
0.00099997963
1.1019661e-07
3.9886945e-06
2.506579e-06
3.0607998e-06
2.4305526e-06
2.3367639e-06
2.6180542e-06
2.2683138e-06
2.2493344e-06
2.1485145e-06
2.122477e-06
2.1182752e-06
2.1462155e-06
2.2055986e-06
2.2922951e-06
2.4039168e-06
2.5397442e-06
2.7002388e-06
2.8840414e-06
3.0971076e-06
3.3404495e-06
3.6169002e-06
3.9299175e-06
4.2837145e-06
4.683379e-06
5.1350488e-06
5.6461804e-06
6.2165431e-06
6.8723616e-06
7.6210704e-06
8.4799571e-06
9.4704999e-06
1.0619771e-05
1.1961769e-05
1.3539125e-05
1.5404975e-05
1.7625378e-05
2.0282533e-05
2.347873e-05
2.7340911e-05
3.2026411e-05
3.7729264e-05
4.5021942e-05
5.3602356e-05
6.4109181e-05
7.699186e-05
9.280381e-05
0.00011222769
0.00013610525
0.00016695847
0.00020335546
0.00024814103
0.00030327124
0.00037464155
0.0004588875
0.00056268863
0.00069725925
0.00085616349
0.0010115358
0.0010107678
0.0010099874
0.0010091772
0.0010083369
0.0010074632
0.001006551
0.001005596
0.0010046039
0.0010036083
0.0010028004
0.0010021517
0.0010016378
0.0010012348
0.001000929
0.0010007063
0.0010005537
0.0010004256
0.0010002973
0.0010002198
0.0010001828
0.0010000545
1.0463299e-07
3.5239713e-06
2.1408943e-06
2.5527247e-06
2.0719109e-06
1.9259621e-06
2.1308106e-06
1.8575799e-06
1.8283221e-06
1.7841943e-06
1.7860143e-06
1.8138949e-06
1.8743565e-06
1.9610619e-06
2.0715729e-06
2.204967e-06
2.3614524e-06
2.5401934e-06
2.7458979e-06
2.9796881e-06
3.2440883e-06
3.5421633e-06
3.8775822e-06
4.2547296e-06
4.6788734e-06
5.1563756e-06
5.6886629e-06
6.2950647e-06
6.9829942e-06
7.7669193e-06
8.66504e-06
9.7000799e-06
1.0900623e-05
1.2302605e-05
1.3951265e-05
1.5903246e-05
1.8228889e-05
2.1015389e-05
2.437121e-05
2.8430448e-05
3.3359586e-05
3.9649404e-05
4.7044977e-05
5.6091773e-05
6.7176887e-05
8.0775145e-05
9.7471633e-05
0.00011798796
0.00014454103
0.00017581617
0.0002142901
0.00026164532
0.00031995436
0.00039545964
0.00048460577
0.0005944787
0.00073700557
0.00090535116
0.0010110782
0.0010102859
0.0010094717
0.0010086297
0.0010077572
0.0010068529
0.0010059139
0.0010049365
0.0010039365
0.0010030376
0.0010023273
0.0010017619
0.0010013163
0.0010009693
0.0010007119
0.0010005282
0.0010003989
0.0010002889
0.0010001901
0.0010001553
0.0010001464
0.0010000675
1.0056861e-07
3.0393029e-06
1.8252197e-06
2.0410429e-06
1.7757107e-06
1.5757035e-06
1.6837137e-06
1.5122777e-06
1.499446e-06
1.4999489e-06
1.5294362e-06
1.5907936e-06
1.6780284e-06
1.7876122e-06
1.9185989e-06
2.0711856e-06
2.2453231e-06
2.4441023e-06
2.6690992e-06
2.9226368e-06
3.2074939e-06
3.5269205e-06
3.8847259e-06
4.2854179e-06
4.7344018e-06
5.234661e-06
5.7995063e-06
6.4364392e-06
7.1575345e-06
7.9779441e-06
8.9168988e-06
9.9984313e-06
1.1252798e-05
1.2717991e-05
1.4441798e-05
1.648432e-05
1.89207e-05
2.1843216e-05
2.5367119e-05
2.9634331e-05
3.504989e-05
4.1423793e-05
4.9210313e-05
5.8741963e-05
7.0426527e-05
8.4766416e-05
0.00010237973
0.00012402928
0.00015201318
0.00018501973
0.00022563706
0.00027564388
0.00033723786
0.00041697101
0.00051119159
0.00062736722
0.00077810621
0.00095629303
0.0010106193
0.0010098011
0.0010089564
0.0010080861
0.0010071851
0.0010062517
0.0010052882
0.0010043029
0.0010033265
0.001002549
0.0010019217
0.0010014262
0.0010010406
0.0010007467
0.0010005259
0.0010003783
0.0010002711
0.0010001763
0.0010000999
0.0010000988
0.0010001226
0.0010000812
9.8156063e-08
2.5376436e-06
1.5509249e-06
1.5537854e-06
1.505203e-06
1.2779363e-06
1.3215005e-06
1.2385103e-06
1.2541802e-06
1.2860208e-06
1.3489522e-06
1.4361392e-06
1.5445318e-06
1.6727899e-06
1.821165e-06
1.990665e-06
2.1821526e-06
2.398593e-06
2.6418207e-06
2.9143838e-06
3.2192068e-06
3.5596588e-06
3.9396513e-06
4.36379e-06
4.8375834e-06
5.3677294e-06
5.962485e-06
6.6321136e-06
7.3809586e-06
8.2384014e-06
9.218892e-06
1.0347855e-05
1.1657336e-05
1.3187572e-05
1.4988946e-05
1.7194242e-05
1.9763102e-05
2.2847533e-05
2.6570184e-05
3.1082392e-05
3.6570597e-05
4.3264128e-05
5.1446366e-05
6.1466225e-05
7.375356e-05
8.8838312e-05
0.0001073727
0.00013129773
0.00015953471
0.00019427295
0.00023703244
0.00028969077
0.00035792603
0.00043848082
0.00053779569
0.00066031979
0.00081927123
0.0010074162
0.0010101696
0.0010093239
0.0010084506
0.001007554
0.0010066294
0.0010056725
0.001004683
0.0010036879
0.0010028251
0.0010021337
0.0010015802
0.0010011419
0.0010008021
0.0010005541
0.0010003696
0.0010002496
0.0010001633
0.0010000859
0.0010000307
0.0010000507
0.0010000976
0.001000078
9.8184729e-08
2.0415121e-06
1.3200412e-06
1.1805095e-06
1.236396e-06
1.0301232e-06
1.0564922e-06
1.0368626e-06
1.081189e-06
1.1423989e-06
1.2290836e-06
1.3354469e-06
1.4604229e-06
1.6041607e-06
1.7677206e-06
1.9526018e-06
2.1603327e-06
2.3934787e-06
2.6542152e-06
2.9452011e-06
3.2694458e-06
3.6303961e-06
4.0320475e-06
4.4791035e-06
4.9771961e-06
5.5331836e-06
6.1555499e-06
6.8549033e-06
7.6445992e-06
8.5415273e-06
9.5670406e-06
1.0748188e-05
1.2119061e-05
1.3722541e-05
1.5612321e-05
1.78554e-05
2.0535167e-05
2.3755391e-05
2.7644507e-05
3.2361523e-05
3.8102867e-05
4.5110211e-05
5.3679175e-05
6.4176036e-05
7.7050815e-05
9.3627137e-05
0.00011319778
0.00013725232
0.00016683733
0.00020324572
0.00024807309
0.00030613879
0.00037468902
0.00045919301
0.00056343615
0.00069884445
0.00085896866
0.0010106036
0.0010097397
0.0010088676
0.0010079682
0.0010070446
0.0010060966
0.0010051255
0.0010041364
0.0010031633
0.0010024034
0.001001787
0.0010012972
0.0010009109
0.0010006119
0.0010003909
0.0010002391
0.0010001396
0.00100007
0.0010000112
0.00099998008
0.0010000177
0.0010000797
0.0010000762
1.0147171e-07
1.5841436e-06
1.1307115e-06
9.0833729e-07
1.0800319e-06
8.2554366e-07
8.7469122e-07
8.9996926e-07
9.6678026e-07
1.0507198e-06
1.1543761e-06
1.2753303e-06
1.4139724e-06
1.5712971e-06
1.7487721e-06
1.9481115e-06
2.1712635e-06
2.4202562e-06
2.6977218e-06
3.0062981e-06
3.3490582e-06
3.7295202e-06
4.151765e-06
4.6206027e-06
5.1418013e-06
5.7223963e-06
6.3711085e-06
7.0989139e-06
7.9196738e-06
8.8509959e-06
9.9151649e-06
1.1140483e-05
1.2562656e-05
1.4226623e-05
1.6188666e-05
1.8519044e-05
2.1305113e-05
2.4655195e-05
2.8703282e-05
3.3614864e-05
3.9864431e-05
4.7222434e-05
5.6219585e-05
6.7239664e-05
8.0754482e-05
9.7345331e-05
0.00011772899
0.00014278961
0.00017361523
0.00021353272
0.00026060445
0.00031858169
0.00039003777
0.00047816771
0.00059266922
0.00072802313
0.00089531204
0.0010102115
0.0010093343
0.0010084434
0.0010075249
0.0010065788
0.0010056042
0.0010046065
0.0010036133
0.0010027462
0.0010020543
0.0010015005
0.0010010622
0.0010007199
0.0010004572
0.0010002602
0.0010001317
0.0010000478
0.00099999017
0.00099994725
0.00099993803
0.0009999912
0.0010000647
0.0010000727
1.0817453e-07
1.23748e-06
9.6822784e-07
7.6520443e-07
7.7133399e-07
7.0593514e-07
7.5207642e-07
8.1253895e-07
8.9615232e-07
9.9579529e-07
1.1121715e-06
1.2451956e-06
1.3959295e-06
1.5656823e-06
1.7560409e-06
1.9687764e-06
2.2058694e-06
2.4695268e-06
2.7622204e-06
3.0867314e-06
3.4462156e-06
3.8442913e-06
4.2851643e-06
4.7738038e-06
5.3161879e-06
5.917522e-06
6.5898949e-06
7.3433035e-06
8.1994442e-06
9.1651624e-06
1.0268752e-05
1.1539887e-05
1.3015974e-05
1.4744028e-05
1.6782889e-05
1.9205905e-05
2.2104198e-05
2.5590668e-05
2.9804876e-05
3.4919082e-05
4.1145684e-05
4.8746394e-05
5.8043386e-05
6.9431489e-05
8.33988e-05
0.00010054594
0.00012269608
0.00014879791
0.00018089682
0.00022039735
0.00026903637
0.00032896792
0.00040286426
0.00049874315
0.00061216529
0.00075232697
0.00092571792
0.0010098556
0.001008964
0.0010080571
0.0010071261
0.0010061698
0.0010051869
0.0010041837
0.001003199
0.0010024145
0.0010017778
0.0010012715
0.0010008723
0.0010005642
0.0010003423
0.001000154
0.0010000435
0.00099997254
0.000999924
0.00099989436
0.00099990183
0.00099996539
0.0010000467
0.0010000609
1.2258901e-07
1.2097831e-06
8.0977645e-07
5.6824513e-07
6.1278316e-07
6.1556934e-07
6.7946224e-07
7.5837534e-07
8.5523303e-07
9.6678488e-07
1.0940431e-06
1.2378174e-06
1.399396e-06
1.5801823e-06
1.7817905e-06
2.0060181e-06
2.2548754e-06
2.5306108e-06
2.8357461e-06
3.173121e-06
3.5459543e-06
3.9579299e-06
4.4133209e-06
4.9171661e-06
5.4755219e-06
6.0958071e-06
6.7872601e-06
7.5615264e-06
8.4334038e-06
9.4217331e-06
1.0550469e-05
1.1850025e-05
1.3358793e-05
1.5125039e-05
1.7209149e-05
1.9686362e-05
2.2650099e-05
2.6216003e-05
3.0526893e-05
3.5758862e-05
4.2128877e-05
5.026168e-05
5.9845295e-05
7.1580718e-05
8.5970137e-05
0.00010363125
0.00012532633
0.00015199659
0.00018480524
0.00022518968
0.00027493424
0.00033935575
0.00041553919
0.00050956541
0.00062573257
0.0007694161
0.00094734288
0.0010095611
0.0010086524
0.0010077264
0.0010067789
0.001005809
0.0010048182
0.0010038213
0.0010028931
0.0010021638
0.0010015715
0.0010011012
0.0010007323
0.0010004499
0.0010002532
0.0010000791
0.00099997407
0.00099991317
0.00099987084
0.00099985126
0.00099986854
0.00099993492
0.001000019
0.0010000436
1.1489807e-07
7.1665017e-07
6.4143477e-07
4.7040623e-07
5.1341602e-07
5.5932173e-07
6.380577e-07
7.3041263e-07
8.3777992e-07
9.5948145e-07
1.0965982e-06
1.2501736e-06
1.4215231e-06
1.6121072e-06
1.8235744e-06
2.0577692e-06
2.3167561e-06
2.602812e-06
2.9185681e-06
3.2669115e-06
3.6511282e-06
4.0749703e-06
4.542781e-06
5.0596721e-06
5.6317806e-06
6.266619e-06
6.9735419e-06
7.7643509e-06
8.6611297e-06
9.6720607e-06
1.0826433e-05
1.2155415e-05
1.3698297e-05
1.5504433e-05
1.7635511e-05
2.0168344e-05
2.319825e-05
2.684318e-05
3.1248796e-05
3.6594685e-05
4.3101995e-05
5.1042742e-05
6.0751278e-05
7.2640258e-05
8.7217334e-05
0.00010510868
0.00012708717
0.00015546012
0.00018894666
0.00023015891
0.00028092049
0.00034349387