/*--------------------------------*- C++ -*----------------------------------*\
| =========                 |                                                 |
| \\      /  F ield         | OpenFOAM: The Open Source CFD Toolbox           |
|  \\    /   O peration     | Version:  2512                                  |
|   \\  /    A nd           | Website:  www.openfoam.com                      |
|    \\/     M anipulation  |                                                 |
\*---------------------------------------------------------------------------*/
FoamFile
{
    version     2.0;
    format      ascii;
    arch        "LSB;label=32;scalar=64";
    class       volScalarField;
    location    "0.141";
    object      omega;
}
// * * * * * * * * * * * * * * * * * * * * * * * * * * * * * * * * * * * * * //

dimensions      [0 0 -1 0 0 0 0];

internalField   nonuniform List<scalar> 
16000
(
1461.5423
1945.0839
1080.0596
644.13784
453.27546
315.56152
239.28935
180.50089
145.48789
117.77322
100.15626
85.730389
75.078826
66.154627
58.877322
52.739745
47.557203
43.134948
39.333878
36.042506
33.177319
30.667685
28.455428
26.494187
24.746546
23.183396
21.780628
20.519616
19.384584
18.361139
17.436247
16.599623
15.843078
15.159677
14.543504
13.989059
13.49117
13.044947
12.646301
12.291793
11.977554
11.699497
11.454649
11.240311
11.053418
10.890842
10.750156
10.629054
10.525326
10.436876
10.361824
10.29853
10.245464
10.201278
10.164794
10.135112
10.111638
10.094151
10.08299
10.078793
10.079266
10.079226
10.078633
10.077654
10.076154
10.074071
10.07136
10.067992
10.063928
10.059066
10.053177
10.045756
10.036529
10.028498
10.022505
10.017855
10.014394
10.016302
10.01786
10.035365
1469.3888
1922.8356
1071.7517
644.22528
453.57589
318.49269
240.40355
182.40108
146.33162
118.81643
100.70565
86.302054
75.44383
66.471788
59.106574
52.918044
47.687772
43.230064
39.401158
36.087647
33.205217
30.682965
28.461732
26.494445
24.742646
23.176845
21.77223
20.509816
19.373898
18.350328
17.425804
16.589683
15.833632
15.150601
14.534706
13.980513
13.482958
13.037092
12.638635
12.284264
11.970405
11.692754
11.44818
11.2341
11.047626
10.885481
10.745193
10.624474
10.521137
10.433083
10.3584
10.295457
10.242723
10.198851
10.16264
10.133147
10.109735
10.092077
10.080262
10.074871
10.074905
10.074821
10.074137
10.073083
10.071525
10.069395
10.066637
10.063224
10.059118
10.054225
10.048362
10.0411
10.032102
10.02449
10.018883
10.014593
10.011732
10.012277
10.017213
10.035036
1473.1744
1910.2684
1058.0979
640.34534
450.40127
318.73137
239.35908
182.60288
145.91242
118.99115
100.56628
86.326699
75.350138
66.381782
58.981545
52.780238
47.538066
43.074363
39.243603
35.93063
33.050695
30.533033
28.317889
26.357943
24.61395
23.056324
21.659785
20.405071
19.276494
18.260257
17.342993
16.51379
15.764243
15.087208
14.476841
13.927758
13.435027
12.993745
12.599451
12.248795
11.938582
11.664392
11.422912
11.21158
11.027761
10.868068
10.729984
10.611237
10.509676
10.423232
10.349968
10.288281
10.236648
10.193746
10.158375
10.129571
10.106676
10.089336
10.077507
10.071483
10.07095
10.070744
10.069918
10.068732
10.067061
10.06483
10.061979
10.058474
10.054282
10.049311
10.043403
10.036224
10.027456
10.020343
10.015181
10.011372
10.008865
10.008991
10.015532
10.02976
1493.9817
1906.7805
1047.0264
636.78227
446.83594
318.78519
238.02397
182.66644
145.3533
119.06743
100.37569
86.290137
75.215722
66.244881
58.816458
52.603997
47.353125
42.885792
39.055584
35.745422
32.86997
30.358755
28.151383
26.200421
24.465759
22.917766
21.53072
20.285066
19.165041
18.157246
17.24833
16.427092
15.685062
15.014978
14.411044
13.867902
13.380745
12.944775
12.555379
12.209042
11.903016
11.632822
11.394959
11.186784
11.005987
10.84909
10.713512
10.596996
10.497424
10.412775
10.341084
10.28078
10.230348
10.188496
10.154033
10.125975
10.10364
10.086651
10.074902
10.068532
10.067351
10.066969
10.065968
10.064616
10.0628
10.06044
10.057466
10.053842
10.049538
10.044465
10.038478
10.031353
10.022793
10.016195
10.011509
10.008191
10.005958
10.006044
10.013398
10.025146
1500.1765
1912.7279
1038.8604
633.33057
442.52052
318.09857
236.00927
182.24078
144.42087
118.86747
99.998322
86.078066
74.943475
65.976674
58.537235
52.3244
47.075642
42.61358
38.791865
35.491613
32.626814
30.12751
27.932723
25.995096
24.273721
22.738999
21.364831
20.131415
19.022818
18.026069
17.127961
16.316999
15.584683
14.923614
14.328052
13.79265
13.312709
12.883582
12.500592
12.159901
11.859231
11.594131
11.360948
11.15682
10.979827
10.826437
10.693998
10.580264
10.483138
10.400687
10.330907
10.272272
10.223278
10.182668
10.149274
10.122106
10.100458
10.083934
10.072396
10.065879
10.06413
10.063511
10.062298
10.060744
10.058746
10.056222
10.053094
10.049321
10.044875
10.039675
10.03357
10.02646
10.018192
10.012128
10.007937
10.005102
10.003152
10.003371
10.010688
10.020251
1511.1389
1927.4733
1034.7229
630.54696
438.61306
316.78622
233.52231
181.40809
143.22567
118.43093
99.478981
85.71262
74.552844
65.594317
58.158228
51.954469
46.716892
42.2677
38.461148
35.176874
32.328019
29.845358
27.667357
25.746758
24.042163
22.523944
21.165674
19.94737
18.852829
17.869499
16.984453
16.185886
15.465307
14.815152
14.229745
13.703747
13.232538
12.811634
12.436429
12.102641
11.808388
11.54934
11.321798
11.122516
10.950006
10.80074
10.671983
10.561504
10.46721
10.387291
10.3197
10.262968
10.215603
10.176387
10.144189
10.11802
10.097154
10.081178
10.069936
10.063391
10.061218
10.060312
10.058857
10.057067
10.054857
10.05214
10.048835
10.044887
10.040274
10.034927
10.028681
10.021531
10.013681
10.008169
10.004484
10.002122
10.000493
10.000902
10.007934
10.015926
1531.6643
1948.0036
1034.5062
627.88243
434.7922
314.84441
230.94799
180.20146
141.89391
117.76499
98.827002
85.192523
74.039771
65.095345
57.675813
51.490814
46.273395
41.844818
38.060019
34.797942
31.970521
29.509445
27.352746
25.452597
23.768493
22.270251
20.931127
19.731038
18.653424
17.6861
16.816572
16.032703
15.326057
14.688876
14.115555
13.600758
13.139926
12.728712
12.362726
12.037341
11.750622
11.49859
11.27767
11.084079
10.916728
10.77219
10.647646
10.54089
10.449791
10.372723
10.30758
10.252968
10.207406
10.169724
10.138833
10.113759
10.093763
10.078409
10.067532
10.06106
10.058584
10.05735
10.055623
10.053571
10.05112
10.048186
10.04468
10.040537
10.035733
10.030222
10.023831
10.016565
10.009326
10.004382
10.001204
9.9993016
9.9980373
9.9986303
10.005115
10.011562
1542.2665
1971.6553
1035.3326
624.86059
430.94225
312.25525
228.31781
178.75484
140.41511
116.87814
98.057417
84.525298
73.404267
64.48089
57.089301
50.932228
45.743511
41.343295
37.586028
34.352327
31.551951
29.1175
26.986998
25.108846
23.449105
21.974566
20.6581
19.479623
18.422123
17.473679
16.622401
15.855789
15.16552
14.543596
13.984495
13.482882
13.034249
12.634342
12.279039
11.964314
11.686298
11.442219
11.228871
11.04193
10.880377
10.741123
10.621293
10.51869
10.43111
10.35717
10.2947
10.242391
10.198782
10.162746
10.133252
10.109351
10.090295
10.075625
10.065166
10.058839
10.056169
10.054577
10.052556
10.050218
10.047504
10.044331
10.040606
10.036253
10.031239
10.025545
10.019031
10.011595
10.005162
10.000804
9.9981284
9.9966726
9.9958157
9.996586
10.002356
10.008075
1552.5581
1996.0475
1032.0902
621.03829
425.99531
308.97389
224.68778
176.91059
138.51843
115.8131
97.164835
83.708824
72.638602
63.745719
56.39329
50.272703
45.121315
40.757814
37.030957
33.83176
31.064395
28.661966
26.563455
24.716163
23.085252
21.638602
20.348611
19.195339
18.161298
17.234684
16.404402
15.657594
14.986116
14.381685
13.838865
13.352324
12.917612
12.530557
12.187098
11.883187
11.615208
11.380101
11.17526
10.996459
10.841328
10.707855
10.593271
10.495213
10.411439
10.34086
10.281246
10.231386
10.189848
10.155545
10.127513
10.104839
10.086777
10.072841
10.062837
10.056701
10.053923
10.051954
10.049619
10.046978
10.043983
10.040554
10.036595
10.032022
10.026788
10.020886
10.014287
10.006892
10.001233
9.9974749
9.9952932
9.9942656
9.9938483
9.994822
9.9998133
10.004623
1567.6463
2019.1929
1022.4793
616.15418
419.33483
305.28303
220.29381
174.62787
136.67132
114.55484
96.13946
82.737777
71.734742
62.881828
55.579653
49.499246
44.392758
40.07483
36.392996
33.236898
30.510225
28.146274
26.085435
24.273506
22.676192
21.261783
20.002273
18.877992
17.870972
16.969328
16.162875
15.438546
14.788397
14.203792
13.679394
13.209869
12.790814
12.41815
12.087971
11.796289
11.539409
11.314127
11.118363
10.947594
10.79959
10.67236
10.563885
10.470725
10.391062
10.324024
10.267411
10.220106
10.180723
10.148209
10.121676
10.100262
10.083227
10.070065
10.060543
10.054615
10.051787
10.049432
10.046772
10.043816
10.040525
10.036827
10.032625
10.027827
10.022372
10.016245
10.009549
10.002481
9.9975741
9.9944227
9.9927253
9.9921026
9.9921304
9.9933595
9.9976057
10.001667
1579.6354
2040.3
1012.2221
610.2259
411.0226
301.18624
215.74963
172.1237
134.70056
113.11747
94.968124
81.605136
70.680782
61.868445
54.625544
48.6066
43.558852
39.298032
35.669948
32.565569
29.887286
27.568594
25.551642
23.780909
22.222247
20.844624
19.619843
18.528556
17.552341
16.67903
15.899036
15.199925
14.573714
14.011315
13.507495
13.056914
12.655227
12.298421
11.982759
11.704351
11.459587
11.24506
11.059068
10.897057
10.756645
10.635812
10.533098
10.445188
10.370217
10.306851
10.253392
10.208713
10.171533
10.140835
10.115809
10.09566
10.079664
10.067302
10.058287
10.052562
10.049704
10.046968
10.043974
10.040696
10.037103
10.033127
10.028676
10.02365
10.017983
10.011641
10.004789
9.9984055
9.9942153
9.991667
9.9904459
9.9902043
9.9906398
9.9921027
9.9957791
9.999231
1592.0772
2060.7053
997.40918
602.64864
401.44663
296.66802
211.00941
169.37078
132.70773
111.50109
93.623017
80.27991
69.438324
60.698396
53.533856
47.590865
42.615395
38.423579
34.859781
31.816586
29.195144
26.928895
24.962258
23.238742
21.724244
20.387816
19.202263
18.148208
17.206784
16.365532
15.61334
14.942219
14.342608
13.804845
13.323787
12.894082
12.511459
12.17195
11.872033
11.607929
11.376162
11.173902
10.998159
10.8453
10.712908
10.598835
10.502099
10.419462
10.348852
10.289285
10.239322
10.197352
10.162399
10.133518
10.10998
10.091075
10.076106
10.064551
10.056068
10.050534
10.04762
10.044516
10.041188
10.037587
10.033687
10.02943
10.024728
10.019476
10.013604
10.007106
10.0001
9.9946834
9.9911773
9.9892169
9.9884658
9.9885867
9.9894098
9.9911495
9.9943963
9.9973032
1604.3186
2079.0314
978.76036
594.18898
391.58275
291.75018
206.19898
166.41828
130.65974
109.68455
92.038054
78.744401
68.011358
59.364782
52.297356
46.447662
41.558955
37.449413
33.961203
30.988969
28.433508
26.227624
24.317629
22.647786
21.183618
19.891164
18.74951
17.737144
16.834615
16.029698
15.311232
14.670782
14.100237
13.589335
13.132971
12.72576
12.363567
12.042438
11.759106
11.510002
11.291565
11.100891
10.935878
10.792536
10.6685
10.561894
10.471115
10.393861
10.327836
10.271955
10.225099
10.186107
10.153425
10.126347
10.104253
10.086548
10.072571
10.061807
10.053882
10.048537
10.045485
10.042036
10.038378
10.034458
10.030253
10.025714
10.020763
10.015294
10.009219
10.002637
9.9959509
9.9913306
9.9884742
9.9870731
9.9867874
9.9872561
9.9883944
9.9904217
9.9935021
9.9961197
1616.4378
2091.447
956.20437
585.15723
381.21967
286.47298
201.39477
163.27014
128.48592
107.57102
90.195605
76.986427
66.386019
57.858522
50.909307
45.17179
40.386183
36.373016
32.973057
30.081873
27.602355
25.465815
23.616633
22.007099
20.600311
19.361579
18.269115
17.303226
16.443853
15.678845
14.996849
14.389615
13.849943
13.367766
12.93771
12.554287
12.213603
11.911675
11.64548
11.41181
11.207198
11.028621
10.874349
10.740566
10.624805
10.525013
10.440193
10.368268
10.307223
10.255142
10.211269
10.174839
10.144648
10.119394
10.098692
10.082118
10.069079
10.05906
10.051706
10.046593
10.043261
10.039492
10.035513
10.031283
10.02678
10.021962
10.016763
10.011096
10.004853
9.9981461
9.9922681
9.9883767
9.9861153
9.9852311
9.9853991
9.986214
9.9875993
9.9898942
9.993024
9.9955556
1628.6073
2092.6115
929.93813
575.48667
370.47469
280.86411
196.67094
159.84483
126.06423
105.16566
88.066993
74.987298
64.549133
56.16899
49.361994
43.757943
39.094014
35.192142
31.894876
29.092474
26.699269
24.64241
22.868407
21.327271
19.984832
18.805507
17.767546
16.852242
16.039903
15.318219
14.675637
14.103839
13.594998
13.142826
12.740253
12.381505
12.063065
11.780906
11.532155
11.3141
11.123403
10.957772
10.814131
10.689787
10.582379
10.489578
10.410495
10.343511
10.286826
10.238932
10.198054
10.163985
10.135903
10.112673
10.093347
10.077823
10.065658
10.056308
10.049488
10.044702
10.040926
10.036855
10.03257
10.028043
10.023253
10.018165
10.012719
10.006859
10.000549
9.9939356
9.9890546
9.9858325
9.9841083
9.9836858
9.9842782
9.9854422
9.9870312
9.9895416
9.9928885
9.9956125
1640.9488
2071.0797
900.22339
565.20694
359.38447
274.92914
192.02093
156.01381
123.31681
102.42283
85.621655
72.723665
62.484143
54.284709
47.647842
42.200626
37.68
33.901331
30.722913
28.030419
25.737695
23.771881
22.081957
20.617454
19.345911
18.232213
17.253787
16.390926
15.628614
14.952818
14.351649
13.817397
13.342499
12.920749
12.546151
12.212338
11.916289
11.654005
11.422551
11.21994
11.042566
10.888489
10.755353
10.6402
10.540981
10.455674
10.382252
10.320018
10.267293
10.223059
10.185508
10.153725
10.127507
10.10601
10.088226
10.073692
10.062333
10.053578
10.047171
10.04264
10.038472
10.034107
10.029533
10.024725
10.019662
10.014318
10.008641
10.002584
9.9962526
9.9903578
9.9862933
9.9836994
9.9824566
9.9824358
9.9833978
9.9848999
9.9866995
9.9894046
9.9930964
9.9960643
1653.5432
2035.7779
869.22993
554.36329
348.00501
268.58017
187.13551
151.74808
120.12833
99.29335
82.824565
70.169839
60.17452
52.195836
45.76048
40.490991
36.137645
32.513521
29.474939
26.908252
24.730494
22.86751
21.271024
19.891039
18.693938
17.650535
16.7362
15.931499
15.221153
14.592893
14.034193
13.537901
13.096807
12.705208
12.358141
12.048964
11.774928
11.532322
11.317875
11.130321
10.966032
10.823082
10.699878
10.593442
10.501695
10.42298
10.355609
10.297962
10.248926
10.207992
10.173359
10.144109
10.119593
10.099625
10.08318
10.06974
10.059115
10.05091
10.0448
10.040404
10.03589
10.031241
10.026395
10.021326
10.016007
10.01042
10.00454
9.998346
9.992039
9.9872916
9.9839783
9.9819637
9.9811562
9.9814819
9.9827392
9.9845346
9.9865707
9.9894597
9.9934271
9.9966878
1666.2172
2004.5963
837.66092
542.87946
336.3372
261.27579
182.08649
146.94131
116.38111
95.716624
79.638745
67.300761
57.604869
49.89489
43.688911
38.642612
34.490651
31.046258
28.169518
25.746213
23.69688
21.947848
20.449791
19.161217
18.04651
17.076754
16.228663
15.48327
14.825418
14.24466
13.728395
13.269798
12.862122
12.499772
12.177979
11.892626
11.639734
11.41621
11.219206
11.046015
10.894359
10.76196
10.64799
10.549788
10.465096
10.392376
10.330152
10.277063
10.231871
10.193919
10.161934
10.134916
10.112229
10.093592
10.078365
10.065938
10.055996
10.048327
10.042446
10.03799
10.033188
10.028264
10.023162
10.017852
10.012299
10.006484
10.000415
9.9942011
9.9885768
9.9846789
9.9820743
9.980599
9.9801888
9.9808193
9.9822935
9.9843012
9.9865779
9.9896219
9.9936378
9.9972485
1678.4707
1956.6039
805.012
530.44943
324.27603
252.77832
176.67375
141.47143
111.96114
91.628876
76.029997
64.096617
54.75878
47.370477
41.461874
36.681233
32.765916
29.528383
26.833827
24.569828
22.65668
21.031131
19.641801
18.448288
17.417754
16.522839
15.74126
15.055039
14.448877
13.912907
13.437853
13.015641
12.640154
12.306348
12.009919
11.746958
11.513946
11.307873
11.126188
10.966615
10.827089
10.705573
10.600135
10.509512
10.431375
10.364247
10.306769
10.257752
10.216123
10.180913
10.151327
10.126378
10.105418
10.087953
10.073766
10.062183
10.052945
10.0458
10.040192
10.035425
10.030383
10.025201
10.019853
10.014318
10.008558
10.00255
9.9963464
9.9902207
9.9856774
9.9825074
9.9805305
9.9795621
9.9795193
9.9804249
9.9820571
9.9841737
9.9866238
9.9898632
9.993876
9.9977376
1689.501
1894.7078
770.71159
516.56959
311.05097
242.91799
170.57443
135.19205
106.76558
86.972648
71.976332
60.543346
51.659222
44.67576
39.120195
34.649093
31.004003
27.996479
25.4966
23.404447
21.640574
20.143462
18.86519
17.767906
16.821182
15.999789
15.282588
14.652031
14.096334
13.604639
13.168554
12.780766
12.435518
12.128186
11.85504
11.612799
11.398279
11.20856
11.041255
10.894128
10.765338
10.653277
10.556546
10.472786
10.400628
10.338612
10.285454
10.240041
10.201417
10.169032
10.141554
10.118414
10.098977
10.082756
10.069489
10.058629
10.049944
10.043223
10.037857
10.032763
10.027506
10.02209
10.01651
10.010754
10.004808
9.9986482
9.9924061
9.9870537
9.9832781
9.9807479
9.9792958
9.9787883
9.9791074
9.9802465
9.9820099
9.9841755
9.9867229
9.9901246
9.9941508
9.9981188
1698.0992
1836.8274
733.79816
500.63025
296.93458
231.4815
163.31555
127.93797
100.72411
81.726913
67.481524
56.690744
48.37516
41.874856
36.726808
32.601048
29.251981
26.487693
24.197957
22.283876
20.671741
19.304208
18.136418
17.133314
16.267261
15.515764
14.85844
14.281908
13.773216
13.322442
12.922466
12.566538
12.249344
11.966537
11.714692
11.49111
11.29333
11.118404
10.964244
10.828681
10.709861
10.606828
10.5172
10.439703
10.372902
10.315502
10.266286
10.224225
10.188464
10.158264
10.132691
10.11114
10.093058
10.07797
10.065533
10.055313
10.047072
10.040632
10.035415
10.030052
10.024594
10.018977
10.01319
10.007221
10.001095
9.9948861
9.9888452
9.9844628
9.9813594
9.9793796
9.9783505
9.9781797
9.9788746
9.980216
9.9820958
9.9842957
9.9868992
9.990397
9.9944478
9.9984042
1701.4895
1775.8209
694.04234
480.8978
281.70563
218.14975
154.42936
119.58622
93.852844
75.953851
62.641301
52.654939
45.008184
39.056473
34.356368
30.597909
27.554385
25.047078
22.969631
21.233537
19.770714
18.528985
17.467488
16.554155
15.763722
15.076172
14.475333
13.947647
13.482126
13.068626
12.701284
12.374131
12.08237
11.821986
11.589633
11.382703
11.199824
11.037993
10.89544
10.770331
10.660865
10.565311
10.482242
10.4103
10.348229
10.294896
10.249202
10.210031
10.17691
10.148688
10.124765
10.104571
10.08764
10.073585
10.061887
10.052256
10.044419
10.038144
10.03293
10.027354
10.021703
10.015907
10.009956
10.003816
9.9974944
9.9912113
9.986056
9.9823492
9.9798401
9.9783505
9.9777262
9.9778154
9.9787477
9.9802733
9.9822517
9.9845036
9.9871582
9.9906651
9.9946858
9.9985342
1694.919
1709.0326
650.90797
455.04399
265.18757
202.58947
143.69661
110.18626
86.322954
69.795263
57.648604
48.586209
41.677772
36.314631
32.084162
28.701413
25.962493
23.709742
21.839454
20.274145
18.952753
17.828888
16.866245
16.036231
15.316184
14.688121
14.137689
13.653135
13.224721
12.844558
12.506128
12.204357
11.934994
11.694548
11.480058
11.288987
11.119155
10.968753
10.836043
10.719476
10.617577
10.528834
10.451566
10.384593
10.326692
10.276837
10.23436
10.197906
10.166767
10.140297
10.117846
10.098819
10.082937
10.069611
10.058539
10.049418
10.04201
10.035906
10.030467
10.024748
10.018919
10.012945
10.006838
10.000607
9.9943013
9.9881921
9.9838331
9.9806926
9.9786519
9.9775417
9.9772411
9.9776571
9.9787315
9.9803827
9.9824285
9.9847441
9.9874789
9.9909824
9.9949354
9.9986629
1672.3641
1631.3065
604.63393
422.36021
247.40668
184.63189
131.37597
100.08911
78.49631
63.580069
52.723198
44.646752
38.503538
33.738975
29.978606
26.965023
24.51765
22.506059
20.829599
19.421868
18.229521
17.212121
16.338095
15.582451
14.925154
14.350086
13.84445
13.398364
13.003179
12.651949
12.338675
12.058873
11.808737
11.585158
11.385518
11.207573
11.049348
10.909064
10.785102
10.675967
10.580352
10.497432
10.425198
10.362579
10.308467
10.26185
10.221816
10.187537
10.158152
10.133102
10.111978
10.094031
10.078874
10.066157
10.055569
10.046872
10.039703
10.03373
10.02812
10.022295
10.016343
10.010224
10.003939
9.9975307
9.991217
9.9859517
9.9821278
9.9794668
9.9778027
9.9769911
9.9769341
9.9775994
9.9788053
9.9805347
9.982613
9.9849736
9.9877781
9.9912727
9.9951485
9.9987541
1625.6824
1538.6388
556.41674
383.62928
229.4776
164.58777
118.18215
89.928392
70.826372
57.625153
48.082735
40.990781
35.597553
31.410402
28.097936
25.433248
23.258026
21.45988
19.957255
18.689163
17.610176
16.685486
15.888004
15.196283
14.59304
14.064024
13.596777
13.183357
12.816069
12.489463
12.197552
11.936403
11.702604
11.493362
11.306319
11.139449
10.99097
10.859273
10.742883
10.640424
10.550605
10.472204
10.404042
10.344834
10.293604
10.249387
10.211369
10.178999
10.151217
10.127484
10.107263
10.090103
10.075583
10.063338
10.053167
10.044684
10.037661
10.031727
10.025957
10.020034
10.013998
10.007821
10.001496
9.9950744
9.9888573
9.9842654
9.9808944
9.9786178
9.9772638
9.9766897
9.9766997
9.9776451
9.9789256
9.9807063
9.9828017
9.9851936
9.9880368
9.9914962
9.9952871
9.9987602
1546.906
1435.7267
507.39047
343.63343
205.54922
145.3131
105.04571
80.378519
63.755806
52.233891
43.935458
37.768107
33.066435
29.401815
26.488463
24.131991
22.197062
20.587537
19.233931
18.085272
17.10252
16.255948
15.522265
14.882997
14.323254
13.830901
13.39594
13.010088
12.666623
12.359948
12.085426
11.839407
11.618826
11.421154
11.244246
11.086251
10.945526
10.820577
10.710011
10.612518
10.526873
10.451996
10.387175
10.330805
10.282026
10.239923
10.203687
10.172581
10.145941
10.123121
10.103641
10.08707
10.073121
10.061299
10.051351
10.043022
10.03606
10.030095
10.024158
10.018102
10.011941
10.005664
9.9992856
9.9929254
9.9871677
9.9830301
9.9800305
9.9780499
9.9769257
9.9765374
9.9766677
9.9777456
9.9790813
9.980879
9.9829799
9.9853871
9.9882288
9.9916108
9.9953003
9.9987044
1438.7982
1391.0073
461.56386
296.1061
181.83078
127.27911
93.199871
71.935623
57.645583
47.691399
40.493308
35.125673
31.010808
27.781508
25.1958
23.089752
21.349201
19.8925
18.659066
17.606712
16.701776
15.918602
15.236934
14.640575
14.116385
13.653624
13.243403
12.878404
12.552688
12.261782
12.000767
11.766454
11.556035
11.367204
11.198003
11.046737
10.911899
10.792118
10.686114
10.592671
10.510618
10.43881
10.376123
10.321624
10.27437
10.233514
10.198287
10.168025
10.142263
10.120164
10.101293
10.085207
10.071534
10.059954
10.050181
10.041961
10.03504
10.02904
10.022978
10.016797
10.010502
10.004095
9.9976192
9.9912859
9.9860146
9.9821771
9.9794531
9.9777008
9.9767772
9.9764994
9.9769394
9.9778614
9.9792783
9.981069
9.9831728
9.9855827
9.9883838
9.9916309
9.9951595
9.9985438
1312.3947
1219.0434
421.99886
253.88822
159.83961
112.27495
83.411318
65.125529
52.820369
44.191892
37.905029
33.174111
29.513937
26.615653
24.275228
22.35382
20.754282
19.406974
18.260854
17.277708
16.428491
15.690594
15.046112
14.480585
13.982134
13.540879
13.148791
12.799122
12.486309
12.205754
11.953693
11.726988
11.523056
11.339735
11.175189
11.027827
10.896228
10.779098
10.675229
10.58349
10.502862
10.432613
10.371187
10.31775
10.271382
10.231265
10.196643
10.166834
10.141228
10.119289
10.100532
10.084537
10.070933
10.059401
10.049661
10.041463
10.034552
10.02855
10.022468
10.01625
10.0099
10.003416
9.9968538
9.9904804
9.9854468
9.9817667
9.979185
9.9775553
9.9767506
9.9765425
9.9770506
9.9780263
9.9794566
9.9812575
9.9833766
9.9858036
9.9885732
9.9916992
9.995073
9.9984302
1201.9805
1095.6271
389.73359
223.39945
143.41996
101.24746
76.163548
60.164797
49.368591
41.733073
36.113651
31.844724
28.511603
25.849949
23.683919
21.893061
20.392512
19.121053
18.033566
17.096139
16.282784
15.573205
14.95126
14.403983
13.921249
13.492734
13.111186
12.770231
12.464633
12.190038
11.942854
11.720121
11.51939
11.338617
11.176069
11.03024
10.89979
10.783492
10.680194
10.588799
10.508253
10.437544
10.37571
10.321818
10.275
10.234443
10.199405
10.169207
10.143239
10.120959
10.101885
10.085594
10.071716
10.059927
10.049947
10.041525
10.034416
10.02828
10.022294
10.016139
10.009878
10.003495
9.9970388
9.9907403
9.9856091
9.9818919
9.9792814
9.9776407
9.9768471
9.9766584
9.9771421
9.9781231
9.9795504
9.9813539
9.9834911
9.9859411
9.9886967
9.991736
9.9949986
9.9983535
1156.164
1041.8409
365.90724
206.4846
132.63801
93.741728
70.743535
56.206508
46.415151
39.481037
34.36243
30.456413
27.393727
24.937984
22.931885
21.267306
19.867841
18.678213
17.65759
16.775244
16.007617
15.336301
14.746617
14.226624
13.766433
13.357764
12.9936
12.668036
12.376104
12.113663
11.877278
11.66411
11.471816
11.298444
11.142347
11.002105
10.876461
10.76427
10.664459
10.576009
10.497935
10.429287
10.369151
10.316654
10.270973
10.231338
10.197038
10.167428
10.141923
10.12
10.101196
10.085102
10.071361
10.059658
10.049722
10.041309
10.034178
10.027995
10.021942
10.015731
10.009417
10.002991
9.9965099
9.9902434
9.9853552
9.9817538
9.979226
9.9776243
9.976823
9.9766019
9.9771632
9.9781198
9.9795424
9.9813417
9.9834831
9.9859388
9.988688
9.9917002
9.9949265
9.9983046
36975.175
79676.748
39451.779
10034.344
1235.1146
612.83729
436.0056
350.9897
289.19917
234.97864
191.72538
158.85562
134.33862
116.09528
102.13113
90.770318
81.135054
72.875511
65.783833
59.66464
54.34438
49.686622
45.585919
41.956943
38.734557
35.854196
33.270512
30.943581
28.841574
26.939358
25.21551
23.650949
22.229009
20.935007
19.757411
18.686537
17.713669
16.831088
16.031746
15.309219
14.657914
14.072289
13.54729
13.078357
12.661007
12.291014
11.964561
11.677621
11.426515
11.207895
11.018491
10.855184
10.714995
10.595398
10.493873
10.40816
10.337743
10.282621
10.242866
10.221267
10.214067
10.2119
10.209599
10.206477
10.202889
10.198871
10.194251
10.187436
10.177735
10.166281
10.150766
10.135847
10.106067
10.089911
10.068748
10.068899
10.039161
10.056538
9.9959216
10.021469
22202.026
69629.662
27782.271
4623.6106
941.47821
533.12445
399.94163
321.94853
263.40835
212.24582
174.22476
145.54981
124.38433
108.56046
96.182037
85.833208
76.969286
69.364318
62.821562
57.151287
52.198479
47.845649
44.000435
40.586927
37.543266
34.816363
32.364753
30.151093
28.147276
26.330695
24.681585
23.182265
21.817375
20.573403
19.440028
18.408292
17.47006
16.61816
15.845979
15.147508
14.517518
13.950701
13.44231
12.98802
12.583525
12.224803
11.908205
11.629811
11.386116
11.173903
10.990001
10.831395
10.695214
10.579037
10.480429
10.397156
10.328267
10.274474
10.235955
10.215608
10.209023
10.207026
10.204756
10.201703
10.198205
10.194273
10.189829
10.183739
10.174727
10.163785
10.148848
10.134168
10.105329
10.089547
10.068506
10.068707
10.03929
10.057082
9.9965304
10.022072
24215.236
49314.312
16437.536
2357.9702
833.05059
506.70692
388.41675
306.67862
250.94732
201.54521
166.76092
139.62664
119.86312
104.94288
93.144129
83.188826
74.68033
67.389853
61.110978
55.660462
50.893798
46.700862
42.993609
39.699312
36.757137
34.119777
31.747016
29.602464
27.660037
25.898044
24.297416
22.841139
21.514532
20.304667
19.201916
18.197628
17.283991
16.454143
15.701704
15.020911
14.40675
13.854032
13.358215
12.915114
12.520527
12.170568
11.861698
11.59006
11.352277
11.145214
10.965771
10.81101
10.67815
10.564862
10.468635
10.387401
10.319847
10.267078
10.229509
10.21012
10.203991
10.202145
10.199925
10.196954
10.193553
10.189711
10.185327
10.179908
10.17162
10.161217
10.146883
10.132453
10.104626
10.089071
10.068159
10.068411
10.039336
10.057506
9.9971601
10.022685
32035.122
27494.068
8509.5209
1496.6709
761.00443
483.06203
374.8162
291.7861
239.75343
191.00848
159.75203
133.79589
115.53621
101.46502
90.239223
80.674073
72.513431
65.518464
59.486174
54.241769
49.649707
45.606438
42.028157
38.845375
36.000486
33.445577
31.146601
29.067283
27.183105
25.473069
23.918773
22.503808
21.214105
20.037269
18.964322
17.986846
17.097336
16.289207
15.556287
14.893036
14.294636
13.756
13.272785
12.840927
12.456323
12.115216
11.814169
11.549382
11.317607
11.115788
10.940893
10.790062
10.66067
10.550249
10.456475
10.377338
10.311307
10.259584
10.222999
10.20458
10.19892
10.197229
10.195065
10.192184
10.188883
10.185135
10.180845
10.175838
10.168304
10.158467
10.144758
10.130592
10.103806
10.088453
10.067685
10.068014
10.0393
10.057825
9.9978017
10.023313
36437.588
20136.399
5471.0656
1269.3801
723.25961
462.08602
364.02125
279.44285
231.43785
182.87702
154.67327
129.16754
112.22533
98.687826
87.887207
78.612928
70.728286
63.963859
58.12456
53.042787
48.589897
44.667007
41.193292
38.101642
35.336406
32.852271
30.61328
28.588968
26.754349
25.088841
23.574545
22.195508
20.938138
19.790458
18.744024
17.790535
16.922755
16.134311
15.419182
14.772018
14.188149
13.662559
13.191084
12.769747
12.394525
12.061776
11.768145
11.509876
11.283844
11.087054
10.916538
10.769519
10.643453
10.535829
10.444447
10.367357
10.302941
10.252204
10.216563
10.198921
10.193843
10.192302
10.1902
10.187415
10.184217
10.180567
10.176366
10.171569
10.16481
10.155566
10.142501
10.12862
10.102882
10.087719
10.067089
10.067515
10.039167
10.058044
9.9984528
10.023962
38556.031
16984.581
3901.0606
1188.6337
698.69758
442.55822
356.09795
269.28962
224.886
176.15445
150.61707
125.18077
109.46602
96.269672
85.839016
76.806596
69.159535
62.589923
56.91505
51.972732
47.639854
43.821158
40.438262
37.426054
34.730672
32.308197
30.122778
28.147243
26.356689
24.731012
23.252674
21.906093
20.678088
19.557023
18.534928
17.60355
16.755907
15.985788
15.2873
14.655254
14.0851
13.571874
13.111576
12.700293
12.33407
12.009368
11.722899
11.470948
11.250501
11.058621
10.892407
10.749192
10.626308
10.521436
10.432419
10.357358
10.294661
10.244878
10.210166
10.193342
10.188772
10.187359
10.185328
10.182645
10.179553
10.176002
10.171896
10.16716
10.161128
10.152502
10.140099
10.126527
10.101813
10.086915
10.066403
10.066935
10.038914
10.058169
9.9991123
10.024613
39876.006
14157.159
3114.4283
1138.368
681.43484
428.41797
350.24064
260.92379
219.73209
170.69464
147.35151
121.78272
107.17461
94.169504
84.062517
75.226414
67.781345
61.37536
55.840008
51.016737
46.78698
43.058286
39.754215
36.81129
34.177092
31.809009
29.672529
27.739105
25.987631
24.397608
22.951637
21.634415
20.4331
19.336348
18.336604
17.425606
16.596619
15.843551
15.160615
14.542762
13.985538
13.484012
13.034339
12.632646
12.27504
11.958073
11.67851
11.432669
11.21765
11.030571
10.868637
10.729014
10.609269
10.507108
10.420425
10.34737
10.286426
10.237626
10.20382
10.187843
10.183704
10.182412