/*--------------------------------*- C++ -*----------------------------------*\
| =========                 |                                                 |
| \\      /  F ield         | OpenFOAM: The Open Source CFD Toolbox           |
|  \\    /   O peration     | Version:  2512                                  |
|   \\  /    A nd           | Website:  www.openfoam.com                      |
|    \\/     M anipulation  |                                                 |
\*---------------------------------------------------------------------------*/
FoamFile
{
    version     2.0;
    format      ascii;
    arch        "LSB;label=32;scalar=64";
    class       volScalarField;
    location    "0.141";
    object      p;
}
// * * * * * * * * * * * * * * * * * * * * * * * * * * * * * * * * * * * * * //

dimensions      [1 -1 -2 0 0 0 0];

internalField   nonuniform List<scalar> 
16000
(
89641.846
89767.827
89779.537
89913.929
89940.279
90067.424
90118.063
90234.653
90308.531
90419.545
90511.625
90622.585
90728.722
90844.016
90961.212
91083.875
91210.623
91342.064
91478.077
91618.755
91764.109
91914.149
92068.857
92228.194
92392.095
92560.466
92733.182
92910.09
93091
93275.69
93463.902
93655.344
93849.689
94046.575
94245.608
94446.366
94648.396
94851.223
95054.354
95257.281
95459.485
95660.448
95859.652
96056.591
96250.772
96441.726
96629.007
96812.204
96990.939
97164.871
97333.701
97497.172
97655.068
97807.216
97953.484
98093.779
98228.046
98356.265
98478.448
98594.638
98704.906
98809.342
98908.06
99001.193
99088.888
99171.308
99248.626
99321.029
99388.714
99451.887
99510.76
99565.546
99616.463
99663.752
99707.638
99748.62
99788.128
99812.576
99886.293
99827.15
89274.899
89417.818
89427.296
89573.608
89601.425
89739.516
89792.441
89920.318
89998.025
90119.164
90217.674
90337.618
90452.129
90576.356
90702.892
90835.128
90971.868
91113.597
91260.237
91411.845
91568.415
91729.931
91896.344
92067.58
92243.536
92424.074
92609.024
92798.181
92991.301
93188.107
93388.278
93591.461
93797.264
94005.258
94214.985
94425.956
94637.66
94849.562
95061.119
95271.776
95480.98
95688.183
95892.851
96094.472
96292.556
96486.65
96676.334
96861.23
97041.004
97215.367
97384.075
97546.931
97703.783
97854.523
97999.081
98137.428
98269.567
98395.532
98515.388
98629.222
98737.145
98839.28
98935.771
99026.771
99112.445
99192.968
99268.521
99339.291
99405.472
99467.262
99524.87
99578.497
99628.347
99674.658
99717.716
99757.938
99794.344
99827.724
99878.652
99845.496
88939.626
89098.041
89107.24
89266.875
89294.905
89446.77
89501.521
89641.768
89724.454
89856.183
89962.551
90092.175
90216.35
90350.542
90487.616
90630.614
90778.544
90931.766
91090.216
91253.91
91422.817
91596.882
91776.022
91960.122
92149.033
92342.568
92540.504
92742.576
92948.477
93157.861
93370.336
93585.474
93802.806
94021.83
94242.01
94462.787
94683.582
94903.803
95122.852
95340.136
95555.07
95767.09
95975.657
96180.265
96380.447
96575.782
96765.894
96950.46
97129.208
97301.918
97468.42
97628.594
97782.364
97929.7
98070.607
98205.125
98333.325
98455.302
98571.174
98681.076
98785.161
98883.587
98976.522
99064.144
99146.632
99224.17
99296.944
99365.141
99428.949
99488.561
99544.173
99595.967
99644.137
99688.947
99730.641
99769.212
99804.303
99839.992
99877.305
99863.897
88641.431
88810.717
88820.546
88995.66
89023.188
89191.353
89248.401
89402.989
89491.536
89635.366
89751.031
89891.642
90027.05
90172.6
90321.656
90476.808
90637.27
90803.285
90974.797
91151.787
91334.197
91521.939
91714.89
91912.889
92115.734
92323.178
92534.929
92750.648
92969.947
93192.395
93417.512
93644.777
93873.632
94103.486
94333.719
94563.693
94792.761
95020.271
95245.581
95468.063
95687.116
95902.173
96112.711
96318.252
96518.372
96712.707
96900.95
97082.853
97258.23
97426.949
97588.933
97744.155
97892.631
98034.417
98169.602
98298.306
98420.668
98536.85
98647.023
98751.371
98850.087
98943.363
99031.393
99114.372
99192.492
99265.944
99334.915
99399.587
99460.143
99516.764
99569.626
99618.887
99664.742
99707.457
99747.123
99783.57
99817.54
99852.037
99881.164
99881.366
88383.148
88567.279
88574.026
88767.792
88794.225
88980.677
89039.879
89210.554
89306.163
89463.449
89590.127
89742.843
89890.911
90048.976
90211.176
90379.612
90553.717
90733.649
90919.355
91110.788
91307.856
91510.426
91718.319
91931.309
92149.117
92371.414
92597.815
92827.882
93061.126
93297.004
93534.93
93774.275
94014.375
94254.54
94494.062
94732.222
94968.308
95201.619
95431.48
95657.248
95878.329
96094.178
96304.311
96508.31
96705.824
96896.573
97080.345
97256.997
97426.448
97588.676
97743.715
97891.642
98032.575
98166.667
98294.094
98415.055
98529.763
98638.438
98741.307
98838.599
98930.54
99017.354
99099.252
99176.445
99249.132
99317.507
99381.753
99442.046
99498.556
99551.45
99600.879
99646.979
99689.95
99730.019
99767.083
99801.102
99833.625
99865.365
99888.482
99899.332
88167.593
88369.266
88374.176
88588.853
88614.324
88821.069
88882.666
89071.18
89175.062
89346.486
89485.341
89650.641
89812.295
89983.749
90160.115
90343.003
90532.022
90727.244
90928.587
91135.946
91349.164
91568.031
91792.281
92021.591
92255.578
92493.796
92735.743
92980.853
93228.507
93478.035
93728.721
93979.813
94230.534
94480.09
94727.684
94972.528
95213.857
95450.941
95683.096
95909.696
96130.183
96344.07
96550.952
96750.503
96942.48
97126.721
97303.14
97471.722
97632.517
97785.629
97931.214
98069.465
98200.608
98324.891
98442.58
98553.95
98659.279
98758.846
98852.922
98941.773
99025.656
99104.813
99179.472
99249.849
99316.147
99378.555
99437.248
99492.39
99544.138
99592.638
99638.012
99680.378
99719.939
99756.833
99790.787
99822.093
99852.669
99880.571
99898.865
99918.68
87994.996
88217.53
88219.741
88459.044
88483.611
88714.618
88779.245
88987.03
89099.092
89284.108
89436.255
89614.976
89791.774
89978.333
90170.741
90370.094
90576.087
90788.679
91007.721
91233.019
91464.319
91701.305
91943.594
92190.737
92442.212
92697.432
92955.742
93216.424
93478.706
93741.767
94004.748
94266.769
94526.935
94784.355
95038.16
95287.511
95531.62
95769.761
96001.281
96225.613
96442.279
96650.897
96851.183
97042.949
97226.099
97400.622
97566.586
97724.129
97873.447
98014.785
98148.425
98274.679
98393.878
98506.364
98612.482
98712.574
98806.977
98896.012
98979.989
99059.199
99133.919
99204.401
99270.879
99333.57
99392.669
99448.358
99500.798
99550.137
99596.513
99640.048
99680.833
99718.976
99754.669
99787.917
99818.345
99846.705
99874.816
99898.037
99912.239
99940.227
87859.774
88106.819
88104.832
88373.766
88395.134
88652.558
88720.286
88947.284
89071.333
89272.745
89442.073
89637.197
89832.269
90036.922
90248.213
90466.817
90692.467
90925.021
91164.24
91409.822
91661.392
91918.496
92180.601
92447.093
92717.282
92990.399
93265.608
93542.011
93818.66
94094.569
94368.734
94640.144
94907.803
95170.744
95428.055
95678.886
95922.471
96158.141
96385.331
96603.587
96812.572
97012.064
97201.95
97382.225
97552.976
97714.377
97866.672
98010.167
98145.212
98272.195
98391.523
98503.619
98608.91
98707.816
98800.75
98888.108
98970.266
99047.578
99120.376
99188.965
99253.626
99314.615
99372.161
99426.471
99477.731
99526.103
99571.732
99614.747
99655.263
99693.37
99729.131
99762.653
99794.092
99823.29
99849.875
99875.116
99900.251
99918.115
99928.917
99964.516
87761.082
88036.584
88030.284
88335.523
88351.285
88637.597
88711.324
88960.594
89101.644
89321.72
89511.723
89726.047
89942.371
90168.158
90401.297
90642.114
90890.308
91145.615
91407.666
91676.008
91950.099
92229.302
92512.887
92800.032
93089.832
93381.299
93673.385
93964.986
94254.966
94542.173
94825.462
95103.715
95375.866
95640.918
95897.968
96146.22
96385
96613.768
96832.118
97039.786
97236.639
97422.675
97598.005
97762.843
97917.494
98062.333
98197.792
98324.346
98442.498
98552.765
98655.669
98751.724
98841.433
98925.279
99003.719
99077.183
99146.071
99210.751
99271.56
99328.803
99382.756
99433.663
99481.741
99527.178
99570.141
99610.772
99649.193
99685.508
99719.808
99752.147
99782.568
99811.174
99838.056
99862.886
99885.429
99907.439
99929.1
99941.16
99949.393
99992.075
87702.383
88011.071
88001.401
88343.806
88358.944
88677.979
88763.297
89037.818
89198.771
89439.579
89653.91
89890.639
90131.498
90381.841
90640.16
90906.472
91180.376
91461.435
91749.098
92042.707
92341.492
92644.575
92950.969
93259.592
93569.276
93878.78
94186.814
94492.061
94793.196
95088.92
95377.98
95659.2
95931.508
96193.954
96445.73
96686.187
96914.839
97131.368
97335.62
97527.593
97707.429
97875.395
98031.865
98177.302
98312.236
98437.248
98552.952
98659.977
98758.957
98850.518
98935.267
99013.787
99086.631
99154.314
99217.318
99276.084
99331.014
99382.472
99430.783
99476.238
99519.095
99559.577
99597.877
99634.16
99668.567
99701.214
99732.196
99761.593
99789.462
99815.826
99840.714
99864.222
99886.332
99906.582
99925.013
99943.725
99961.403
99967.422
99974.089
100023.44
87690.636
88038.741
88025.074
88408.196
88427.241
88782.526
88882.49
89184.357
89370.994
89635.374
89878.301
90141.409
90410.599
90689.384
90976.624
91272.046
91575.069
91885.022
92201.094
92522.344
92847.7
93175.965
93505.834
93835.906
94164.711
94490.729
94812.422
95128.267
95436.787
95736.586
96026.38
96305.031
96571.567
96825.207
97065.365
97291.661
97503.914
97702.131
97886.494
98057.335
98215.12
98360.418
98493.88
98616.216
98728.173
98830.515
98924.01
99009.41
99087.446
99158.817
99224.181
99284.156
99339.313
99390.174
99437.216
99480.869
99521.516
99559.5
99595.119
99628.637
99660.282
99690.247
99718.693
99745.757
99771.547
99796.151
99819.636
99842.053
99863.424
99883.743
99903.036
99921.374
99938.598
99954.181
99968.571
99983.94
99997.126
99997.104
100003.36
100058.93
87732.671
88127.629
88110.135
88541.453
88565.668
88960.384
89079.775
89410.897
89628.96
89920.285
90196.291
90490.403
90792.282
91103.919
91424.283
91752.775
92088.527
92430.531
92777.618
93128.46
93481.591
93835.423
94188.264
94538.354
94883.896
95223.09
95554.183
95875.504
96185.511
96482.83
96766.287
97034.936
97288.075
97525.252
97746.258
97951.118
98140.07
98313.536
98472.097
98616.458
98747.422
98865.858
98972.674
99068.797
99155.152
99232.642
99302.14
99364.477
99420.436
99470.743
99516.072
99557.035
99594.19
99628.039
99659.028
99687.554
99713.964
99738.562
99761.608
99783.327
99803.908
99823.507
99842.249
99860.235
99877.541
99894.223
99910.319
99925.849
99940.799
99955.143
99968.909
99982.112
99994.441
100005.42
100015.97
100027.96
100036.2
100030.54
100037.65
100098.35
87829.25
88279.77
88258.941
88745.028
88777.82
89216.408
89363.147
89726.297
89983.213
90306.484
90620.929
90951.68
91291.445
91640.993
91999.159
92364.918
92736.974
93113.857
93493.909
93875.314
94256.12
94634.271
95007.649
95374.116
95731.572
96078.001
96411.538
96730.512
97033.501
97319.358
97587.24
97836.613
98067.248
98279.203
98472.797
98648.574
98807.266
98949.758
99077.04
99190.181
99290.289
99378.485
99455.882
99523.561
99582.562
99633.866
99678.393
99716.998
99750.461
99779.497
99804.749
99826.794
99846.146
99863.257
99878.526
99892.297
99904.866
99916.486
99927.369
99937.693
99947.603
99957.212
99966.606
99975.848
99984.981
99994.028
100003
100011.88
100020.62
100029.19
100037.62
100045.83
100053.37
100059.95
100066.97
100075.52
100078.53
100068.12
100077.35
100141.48
87986.806
88503.26
88480.064
89028.558
89076.007
89562.631
89745.955
90144.673
90448.325
90809.939
91168.968
91542.891
91926.506
92319.512
92720.33
93127.348
93538.676
93952.228
94365.734
94776.78
95182.847
95581.375
95969.821
96345.739
96706.847
97051.106
97376.776
97682.469
97967.173
98230.268
98471.514
98691.029
98889.25
99066.89
99224.888
99364.356
99486.531
99592.727
99684.301
99762.611
99828.995
99884.744
99931.087
99969.181
100000.1
100024.84
100044.3
100059.3
100070.58
100078.79
100084.52
100088.27
100090.49
100091.57
100091.84
100091.57
100091
100090.33
100089.72
100089.28
100089.12
100089.31
100089.89
100090.89
100092.32
100094.16
100096.41
100099
100101.87
100105
100108.38
100111.82
100114.8
100117.36
100121.21
100126.26
100123.88
100110.11
100122.73
100188.08
88212.274
88807.742
88784.665
89403.886
89473.413
90012.046
90243.216
90682.658
91042.08
91450.487
91861.562
92286.151
92720.131
93162.144
93609.941
94061.138
94513.076
94962.9
95407.595
95844.06
96269.193
96679.986
97073.626
97447.599
97799.769
98128.445
98432.423
98710.99
98963.92
99191.432
99394.138
99572.988
99729.197
99864.177
99979.481
100076.74
100157.61
100223.74
100276.74
100318.15
100349.41
100371.88
100386.82
100395.35
100398.53
100397.28
100392.42
100384.71
100374.78
100363.21
100350.49
100337.03
100323.2
100309.31
100295.6
100282.3
100269.55
100257.51
100246.26
100235.89
100226.44
100217.94
100210.38
100203.78
100198.09
100193.28
100189.31
100186.09
100183.54
100181.64
100180.35
100179.35
100178.13
100177.12
100178.19
100179.68
100171.92
100156.41
100173.81
100237.58
88512.688
89202.679
89182.173
89881.814
89984.884
90581.361
90874.953
91363.517
91789.195
92254.651
92726.097
93208.982
93699.391
94194.844
94692.164
95187.967
95678.608
96160.294
96629.19
97081.554
97513.879
97923.032
98306.371
98661.835
98987.99
99284.041
99549.812
99785.688
99992.544
100171.66
100324.61
100453.23
100559.47
100645.34
100712.9
100764.15
100801
100825.29
100838.72
100842.87
100839.19
100828.97
100813.4
100793.52
100770.26
100744.44
100716.77
100687.87
100658.28
100628.45
100598.76
100569.54
100541.05
100513.52
100487.12
100461.98
100438.21
100415.86
100395
100375.65
100357.8
100341.44
100326.54
100313.06
100300.95
100290.13
100280.53
100272.06
100264.62
100258.19
100252.67
100247.63
100242.67
100238.64
100237.26
100235.2
100222.39
100206.25
100229.65
100289.71
88896.245
89699.143
89685.918
90481.021
90634.081
91298.193
91671.314
92219.832
92722.559
93255.695
93795.5
94343.213
94894.332
95444.978
95990.664
96526.695
97048.259
97550.632
98029.379
98480.55
98900.85
99287.753
99639.562
99955.423
100235.28
100479.77
100690.16
100868.2
101015.97
101135.82
101230.23
101301.74
101352.85
101385.98
101403.45
101407.43
101399.9
101382.69
101357.45
101325.68
101288.68
101247.63
101203.55
101157.33
101109.74
101061.45
101013.03
100964.96
100917.64
100871.41
100826.54
100783.24
100741.7
100702.05
100664.37
100628.74
100595.18
100563.73
100534.36
100507.05
100481.77
100458.47
100437.07
100417.51
100399.71
100383.58
100369.01
100355.9
100344.16
100333.75
100324.48
100315.87
100307.73
100301.26
100297.69
100292.19
100275.18
100259.21
100288.58
100344.75
89380.251
90322.212
90327.095
91237.084
91458.34
92200.616
92671.083
93291.254
93881.14
94492.019
95106.922
95723.469
96335.63
96937.602
97523.216
98086.406
98621.47
99123.361
99587.922
100012.04
100393.74
100732.14
101027.41
101280.61
101493.56
101668.66
101808.7
101916.72
101995.88
102049.35
102080.22
102091.43
102085.74
102065.71
102033.64
101991.66
101941.62
101885.21
101823.88
101758.91
101691.43
101622.39
101552.61
101482.8
101413.54
101345.35
101278.61
101213.68
101150.83
101090.25
101032.13
100976.58
100923.69
100873.5
100826.04
100781.3
100739.27
100699.91
100663.17
100628.98
100597.27
100567.95
100540.93
100516.11
100493.39
100472.67
100453.81
100436.71
100421.28
100407.46
100394.95
100383.3
100372.6
100364.23
100358.67
100350.02
100330.23
100315.42
100349.65
100402.1
89994.996
91114.035
91148.732
92192.512
92501.445
93330.788
93918.047
94623.914
95310.823
96007.908
96700.982
97383.931
98048.41
98686.534
99290.821
99854.723
100372.93
100841.61
101258.45
101622.65
101934.78
102196.55
102410.6
102580.25
102709.23
102801.52
102861.16
102892.13
102898.21
102882.98
102849.73
102801.43
102740.78
102670.18
102591.74
102507.3
102418.47
102326.65
102233.02
102138.6
102044.26
101950.71
101858.56
101768.3
101680.35
101595.03
101512.59
101433.23
101357.11
101284.32
101214.92
101148.95
101086.4
101027.27
100971.5
100919.04
100869.82
100823.76
100780.76
100740.73
100703.57
100669.14
100637.36
100608.09
100581.21
100556.61
100534.14
100513.7
100495.21
100478.53
100463.32
100449.21
100436.58
100426.82
100419.43
100407.87
100386.56
100374.8
100412.92
100460.06
90774.474
92106.547
92185.856
93384.433
93814.301
94742.979
95468.851
96276.705
97067.321
97851.511
98614.404
99346.289
100036.99
100677.87
101262.07
101784.8
102243.46
102637.45
102968.04
103237.93
103450.98
103611.79
103725.4
103797.03
103831.85
103834.85
103810.7
103763.7
103697.73
103616.3
103522.48
103418.96
103308.11
103191.95
103072.2
102950.36
102827.67
102705.19
102583.79
102464.21
102347.03
102232.74
102121.73
102014.29
101910.67
101811.03
101715.48
101624.11
101536.94
101453.98
101375.21
101300.57
101230.01
101163.44
101100.77
101041.89
100986.69
100935.06
100886.87
100841.98
100800.28
100761.63
100725.89
100692.94
100662.63
100634.83
100609.41
100586.25
100565.28
100546.29
100528.91
100512.93
100498.99
100488.25
100479.22
100465.23
100443.57
100436.09
100477.16
100517.31
91750.499
93348.527
93509.026
94879.421
95475.954
96519.426
97400.284
98319.001
99205.42
100056.99
100857.45
101595.64
102262.44
102851.87
103361.02
103789.84
104140.69
104417.84
104626.9
104774.33
104866.96
104911.66
104915.08
104883.45
104822.52
104737.43
104632.8
104512.63
104380.44
104239.22
104091.55
103939.62
103785.26
103630.02
103475.18
103321.8
103170.76
103022.75
102878.34
102737.99
102602.04
102470.75
102344.32
102222.87
102106.48
101995.18
101888.97
101787.82
101691.68
101600.45
101514.06
101432.37
101355.29
101282.67
101214.37
101150.27
101090.2
101034.02
100981.59
100932.76
100887.37
100845.27
100806.33
100770.39
100737.32
100706.95
100679.18
100653.88
100630.96
100610.16
100591.13
100573.86
100559.13
100547.69
100537.23
100521.54
100500.81
100497.9
100539.96
100571.94
93005.064
94938.764
95225.123
96788.056
97598.214
98763.063
99791.526
100802.84
101744.96
102609.06
103381.52
104055.01
104626.39
105096.59
105469.85
105752.82
105953.75
106081.73
106146.07
106155.86
106119.64
106045.23
105939.64
105809.05
105658.8
105493.51
105317.08
105132.82
104943.49
104751.4
104558.45
104366.2
104175.94
103988.7
103805.29
103626.39
103452.49
103283.99
103121.18
102964.26
102813.36
102668.55
102529.86
102397.28
102270.75
102150.2
102035.53
101926.62
101823.34
101725.54
101633.07
101545.77
101463.48
101386.02
101313.23
101244.94
101180.97
101121.16
101065.34
101013.34
100965
100920.16
100878.67
100840.37
100805.11
100772.75
100743.15
100716.22
100691.81
100669.64
100649.45
100631.39
100616.26
100604.31
100592.65
100576.11
100557.34
100558.33
100598.85
100623.5
94667.758
97015.722
97482.405
99234.804
100292
101559.74
102679.56
103713.88
104625.18
105407.71
106057.92
106578.67
106977.19
107263.89
107450.98
107551.38
107577.88
107542.54
107456.38
107329.19
107169.5
106984.61
106780.71
106562.98
106335.73
106102.5
105866.2
105629.19
105393.38
105160.3
104931.17
104706.94
104488.36
104276
104070.27
103871.48
103679.83
103495.44
103318.37
103148.63
102986.17
102830.91
102682.74
102541.54
102407.16
102279.43
102158.18
102043.23
101934.38
101831.44
101734.22
101642.52
101556.13
101474.87
101398.54
101326.95
101259.9
101197.22
101138.72
101084.23
101033.57
100986.58
100943.1
100902.96
100866.02
100832.12
100801.17
100773.02
100747.51
100724.37
100703.43
100684.98
100669.71
100657.31
100644.72
100628.05
100611.83
100616.02
100653.72
100672.1
96924.092
99736.421
100443.71
102331.88
103595.04
104902.66
105994.78
106923.81
107677.54
108262.55
108690.64
108978.21
109143.58
109205.39
109181.38
109087.71
108938.59
108746.25
108520.99
108271.4
108004.48
107725.98
107440.5
107151.75
106862.68
106575.62
106292.4
106014.43
105742.81
105478.35
105221.67
104973.19
104733.22
104501.93
104279.41
104065.69
103860.72
103664.41
103476.65
103297.27
103126.11
102962.98
102807.66
102659.94
102519.6
102386.41
102260.14
102140.56
102027.44
101920.55
101819.66
101724.55
101634.99
101550.77
101471.67
101397.5
101328.05
101263.12
101202.53
101146.08
101093.62
101044.95
100999.93
100958.38
100920.16
100885.12
100853.16
100824.14
100797.84
100774.06
100752.71
100734.16
100718.86
100706.08
100692.88
100676.81
100663.61
100670.35
100703.86
100715.2
100018.78
103208.18
104215.51
106162.29
107458.31
108610.99
109511.3
110184.78
110650.18
110934.86
111067.17
111074.8
110982.81
110813.07
110584.01
110310.84
110005.89
109679.02
109338.05
108989.12
108637.01
108285.42
107937.2
107594.5
107258.97
106931.79
106613.85
106305.76
106007.91
105720.57
105443.85
105177.78
104922.3
104677.3
104442.62
104218.06
104003.42
103798.44
103602.87
103416.45
103238.91
103069.98
102909.37
102756.81
102612.02
102474.74
102344.7
102221.62
102105.25
101995.33
101891.63
101793.88
101701.86
101615.34
101534.09
101457.9
101386.56
101319.87
101257.64
101199.67
101145.79
101095.82
101049.59
101006.96
100967.76
100931.87
100899.16
100869.49
100842.66
100818.48
100796.97
100778.46
100763.14
100750.03
100736.62
100721.81
100711.66
100719.55
100747.38
100753.45
104205.89
107603.26
108805.55
110480.3
111588.68
112401.06
112918.09
113195.21
113277.43
113207.92
113023
112752.69
112420.93
112046.52
111643.95
111224.29
110795.91
110365.11
109936.56
109513.71
109099.08
108694.48
108301.16
107919.99
107551.5
107196.01
106853.65
106524.41
106208.19
105904.81
105614.04
105335.61
105069.22
104814.54
104571.24
104338.99
104117.42
103906.21
103705
103513.45
103331.24
103158.01
102993.46
102837.27
102689.12
102548.72
102415.77
102289.98
102171.07
102058.77
101952.83
101852.99
101759
101670.62
101587.62
101509.78
101436.9
101368.76
101305.18
101245.95
101190.9
101139.85
101092.65
101049.13
101009.14
100972.57
100939.27
100909.09
100881.86
100857.43
100835.87
100817.41
100802.02
100788.66
100775.47
100762.32
100754.75
100762.41
100784.08
100786.31
109409.88
112756.27
113860.41
114969.26
115564.27
115833.62
115842.22
115663.51
115351.26
114947.56
114483.56
113982.19
113460.03
112929
112397.57
111871.72
111355.59
110852.02
110362.88
109889.38
109432.21
108991.72
108567.97
108160.87
107770.19
107395.61
107036.73
106693.15
106364.4
106050.02
105749.56
105462.52
105188.46
104926.91
104677.43
104439.58
104212.93
103997.07
103791.6
103596.13
103410.28
103233.68
103065.99
102906.86
102755.96
102612.97
102477.58
102349.48
102228.4
102114.04
102006.15
101904.45
101808.71
101718.66
101634.09
101554.77
101480.49
101411.04
101346.21
101285.83
101229.71
101177.68
101129.57
101085.24
101044.53
101007.32
100973.48
100942.84
100915.27
100890.65
100869.05
100850.55
100835
100821.52
100808.95
100797.71
100791.96
100797.73
100812.63
100813.68
115575.67
118069.81
118668.53
118937.62
118833.35
118496.8
118007
117424.24
116788.73
116127.69
115459.14
114794.91
114142.65
113507.22
112891.55
112297.32
111725.37
111175.93
110648.87
110143.83
109660.25
109197.5
108754.9
108331.71
107927.23
107540.71
107171.47
106818.82
106482.08
106160.63
105853.85
105561.15
105281.98
105015.79
104762.07
104520.33
104290.09
104070.9
103862.33
103663.95
103475.38
103296.21
103126.1
102964.66
102811.58
102666.51
102529.13
102399.15
102276.26
102160.19
102050.65
101947.38
101850.14
101758.67
101672.75
101592.14
101516.63
101446.03
101380.12
101318.72
101261.66
101208.75
101159.84
101114.78
101073.43
101035.65
101001.3
100970.25
100942.37
100917.58
100895.87
100877.24
100861.45
100847.95
100836.19
100826.7
100822
100825.14
100834.1
100835.23
122156.91
122591.19
122367.38
121813.32
121077.63
120250.99
119389.01
118523.32
117672.22
116845.81
116049.41
115285.49
114554.82
113857.16
113191.7
112557.32
111952.72
111376.55
110827.45
110304.08
109805.19
109329.55
108876.01
108443.49
108030.98
107637.52
107262.23
106904.27
106562.84
106237.21
105926.69
105630.62
105348.37
105079.38
104823.07
104578.93
104346.46
104125.18
103914.64
103714.4
103524.06
103343.22
103171.49
103008.52
102853.96
102707.47
102568.72
102437.42
102313.26
102195.95
102085.23
101980.82
101882.47
101789.94
101702.99
101621.39
101544.94
101473.43
101406.66
101344.44
101286.6
101232.96
101183.36
101137.67
101095.72
101057.4
101022.57
100991.09
100962.86
100937.8
100915.86
100896.95
100880.86
100867.31
100856.2
100848.01
100843.78
100844.27
100848.6
100850.45
126019.94
125391.78
124471.65
123416.3
122329.32
121254.74
120215.18
119219.85
118272.15
117372.27
116518.86
115709.84
114942.8
114215.3
113524.93
112869.38
112246.51
111654.34
111091.02
110554.87
110044.33
109557.97
109094.47
108652.63
108231.33
107829.54
107446.3
107080.73
106732
106399.33
106082.01
105779.36
105490.75
105215.59
104953.29
104703.34
104465.23
104238.48
104022.62
103817.23
103621.89
103436.19
103259.77
103092.25
102933.29
102782.54
102639.69
102504.42
102376.43
102255.45
102141.19
102033.38
101931.77
101836.12
101746.18
101661.74
101582.58
101508.49
101439.27
101374.74
101314.71
101259.02
101207.5
101160.02
101116.42
101076.57
101040.33
101007.6
100978.25
100952.22
100929.42
100909.72
100892.98
100879.04
100867.88
100859.79
100855.22
100854.43
100856.56
100858.89
104066.51
104030.66
104057.12
104084.08
104099.37
104091.09
104058.74
104017.12
103969.5
103911.02
103839.57
103757.99
103669.58
103578.45
103484.93
103389.03
103290.96
103191.07
103089.64
102986.92
102883.14
102778.54
102673.34
102567.72
102461.9
102356.04
102250.34
102144.96
102040.07
101935.84
101832.43
101729.99
101628.67
101528.64
101430.02
101332.98
101237.66
101144.19
101052.74
100963.42
100876.4
100791.82
100709.81
100630.51
100554.07
100480.61
100410.27
100343.18
100279.46
100219.22
100162.57
100109.61
100060.4
100015.01
99973.486
99935.864
99902.153
99872.338
99846.384
99824.225
99805.764
99790.881
99779.435
99771.258
99766.18
99763.952
99764.454
99767.158
99772.497
99778.625
99788.775
99795.265
99812.791
99813.846
99846.217
99826.163
99890.026
99831.324
99940.723
99834.049
103085.82
103079.59
103102.36
103123.03
103125.64
103124.38
103117.05
103103.28
103079.98
103051.1
103015.74
102975.4
102929.5
102878.95
102823.75
102764.44
102701.19
102634.29
102564.01
102490.65
102414.48
102335.77
102254.82
102171.9
102087.28
102001.25
101914.06
101825.98
101737.26
101648.15
101558.87
101469.68
101380.78
101292.41
101204.77
101118.06
101032.5
100948.28
100865.59
100784.62
100705.57
100628.6
100553.91
100481.65
100412
100345.13
100281.17
100220.29
100162.62
100108.3
100057.43
100010.11
99966.436
99926.465
99890.249
99857.817
99829.176
99804.307
99783.166
99765.677
99751.736
99741.212
99733.956
99729.792
99728.539
99729.948
99733.871
99739.826
99748.135
99757.189
99769.745
99779.058
99798.162
99802.055
99834.828
99818.404
99881.826
99825.972
99936.846
99828.156
102450.06
102444.77
102443.94
102445.69
102440.88
102435.66
102425.9
102415.95
102401.08
102383.83
102361.46
102336.19
102306.26
102272.93
102235.54
102194.58
102150.02
102102.06
102050.84
101996.54
101939.34
101879.44
101817.03
101752.32
101685.53
101616.86
101546.55
101474.8
101401.86
101327.93
101253.26
101178.07
101102.59
101027.05
100951.68
100876.7
100802.35
100728.84
100656.4
100585.24
100515.58
100447.64
100381.6
100317.68
100256.06
100196.94
100140.48
100086.86
100036.24
99988.752
99944.529
99903.68
99866.294
99832.443
99802.181
99775.537
99752.516
99733.095
99717.222
99704.817
99695.766
99689.933
99687.161
99687.269
99690.066
99695.304
99702.817
99712.157
99723.567
99735.615
99750.708
99762.817
99783.691
99790.178
99823.744
99810.586
99873.858
99820.607
99932.986
99822.585
101996.65
101984.35
101968.63
101952.89
101937.87
101924.75
101904.8
101886.55
101864.35
101842.92
101817.79
101792.5
101764.17
101734.76
101702.88
101669.22
101633.38
101595.49
101555.47
101513.33
101469.11
101422.81
101374.51
101324.25
101272.13
101218.26
101162.75
101105.73
101047.36
100987.81
100927.24
100865.84
100803.81
100741.34
100678.66
100615.98
100553.51
100491.48
100430.13
100369.66
100310.32
100252.32
100195.88
100141.23
100088.56
100038.09
99989.999
99944.482
99901.707
99861.829
99824.984
99791.288
99760.84
99733.716
99709.971
99689.638
99672.72
99659.189
99648.987
99642.028
99638.194
99637.342
99639.31
99643.913
99650.953
99660.185
99671.427
99684.264
99698.878
99713.978
99731.702
99746.595
99769.358
99778.287
99812.923
99802.726
99866.165
99815.261
99929.188
99817.372
101454.56
101438.23
101419.98
101400.77
101380.74
101364.59
101343.9
101327
101305.7
101287.3
101265.28
101244.88
101221.78
101198.96
101174.28
101148.78
101121.82
101093.58
101063.85
101032.61
100999.82
100965.45
100929.46
100891.88
100852.73
100812.03
100769.85
100726.25
100681.34
100635.21
100588
100539.83
100490.86
100441.25
100391.2
100340.88
100290.49
100240.26
100190.38
100141.09
100092.6
100045.14
99998.933
99954.199
99911.155
99870.013
99830.977
99794.24
99759.979
99728.356
99699.512
99673.569
99650.628
99630.771
99614.055
99600.509
99590.134
99582.899
99578.739
99577.563
99579.246
99583.643
99590.587
99599.891
99611.352
99624.727
99639.824
99656.259
99674.163
99692.369
99712.795
99730.473
99755.198
99766.511
99802.343
99794.92
99858.726
99810.014
99925.48
99812.471
100819.86
100809.93
100800.48
100790.73
100778.1
100770.66
100756.9
100748.45
100734.16
100723.98
100709.12
100696.99
100681.71
100667.5
100651.36
100634.83
100617.03
100598.31
100578.41
100557.32
100535
100511.42
100486.54
100460.35
100432.85
100404.05
100373.95
100342.6
100310.04
100276.34
100241.59
100205.88
100169.33
100132.07
100094.25
100056.02
100017.57
99979.085
99940.751
99902.776
99865.371
99828.749
99793.126
99758.72
99725.746
99694.414
99664.928
99637.481
99612.25
99589.396
99569.061
99551.366
99536.415
99524.287
99515.037
99508.691
99505.246
99504.662
99506.87
99511.77
99519.235
99529.116
99541.242
99555.424
99571.457
99589.099
99608.156
99628.269
99649.529
99670.884
99694.06
99714.516
99741.259
99754.929
99792.006
99787.243
99851.52
99804.923
99921.807
99807.871
100195.75
100193.72
100191.81
100191.56
100186.11
100187.34
100180.63
100180.77
100173.8
100172.56
100165.35
100161.87
100154.61
100148.97
100141.1
100133.09
100123.82
100113.87
100102.98
100091.15
100078.35
100064.54
100049.69
100033.79
100016.8
99998.719
99979.551
99959.307
99938.016
99915.718
99892.471
99868.346
99843.432
99817.832
99791.666
99765.066
99738.181
99711.17
99684.204
99657.467
99631.148
99605.444
99580.557
99556.692
99534.053
99512.84
99493.248
99475.46
99459.647
99445.961
99434.538
99425.496
99418.932
99414.92
99413.508
99414.717
99418.532
99424.907
99433.763
99444.996
99458.472
99474.038
99491.522
99510.732