/*--------------------------------*- C++ -*----------------------------------*\
| =========                 |                                                 |
| \\      /  F ield         | OpenFOAM: The Open Source CFD Toolbox           |
|  \\    /   O peration     | Version:  2512                                  |
|   \\  /    A nd           | Website:  www.openfoam.com                      |
|    \\/     M anipulation  |                                                 |
\*---------------------------------------------------------------------------*/
FoamFile
{
    version     2.0;
    format      ascii;
    arch        "LSB;label=32;scalar=64";
    class       surfaceScalarField;
    location    "0.141";
    object      phi;
}
// * * * * * * * * * * * * * * * * * * * * * * * * * * * * * * * * * * * * * //

dimensions      [1 0 -1 0 0 0 0];

oriented        oriented;

internalField   nonuniform List<scalar> 
31760
(
-0.00063813838
-0.051041765
0.051680034
-0.0016021034
-0.06447134
0.065435426
-0.0025935365
-0.062924192
0.063916479
-0.0036105245
-0.068731952
0.069748972
-0.0046814287
-0.070293884
0.07136484
-0.0057816462
-0.074642129
0.075742495
-0.0069514495
-0.077518405
0.078688343
-0.0081607515
-0.0815654
0.082774925
-0.0094300901
-0.085170346
0.086439927
-0.010758534
-0.089307277
0.09063602
-0.012142281
-0.093438982
0.094823064
-0.013593634
-0.097861052
0.099312784
-0.015106715
-0.1024415
0.10395501
-0.016690127
-0.10725187
0.10883574
-0.018343198
-0.11227664
0.1139302
-0.020070777
-0.11753427
0.11926238
-0.02187545
-0.12303218
0.12483743
-0.023760421
-0.12878205
0.13066763
-0.025728903
-0.13479484
0.13676397
-0.02778428
-0.14108186
0.14313792
-0.029929972
-0.14765552
0.14980193
-0.032169731
-0.15452781
0.15676834
-0.034507142
-0.16171234
0.16405056
-0.036946106
-0.16922284
0.17166265
-0.03948959
-0.17707383
0.17961821
-0.042142174
-0.18527946
0.18793298
-0.044907749
-0.19385597
0.19662253
-0.04778974
-0.20281997
0.205703
-0.050791645
-0.21218841
0.2151914
-0.053917511
-0.22197936
0.22510636
-0.057170651
-0.23221175
0.23546609
-0.060554405
-0.24290542
0.24629043
-0.064071596
-0.25408185
0.25760037
-0.067725283
-0.26576219
0.26941726
-0.071517474
-0.27797051
0.28176416
-0.075449844
-0.29073112
0.29466503
-0.079523741
-0.30406977
0.30814528
-0.083739653
-0.31801421
0.32223182
-0.088097404
-0.33259245
0.33695199
-0.092595682
-0.34783604
0.3523362
-0.097232479
-0.36377681
0.36841559
-0.10200436
-0.38044865
0.3852226
-0.10690668
-0.39788773
0.40279224
-0.11193361
-0.41613207
0.4211613
-0.11707735
-0.43522221
0.44036839
-0.12232872
-0.4552
0.46045393
-0.12767608
-0.47611058
0.48146065
-0.13310645
-0.49800057
0.5034338
-0.13860422
-0.52092033
0.52642113
-0.14415102
-0.5449219
0.55047191
-0.14972572
-0.57005998
0.57563808
-0.15530473
-0.59639285
0.60197546
-0.16086058
-0.62398108
0.62954076
-0.16636222
-0.65288846
0.65839418
-0.17177509
-0.68318169
0.68859891
-0.17705918
-0.71493153
0.72022025
-0.18217033
-0.7482112
0.75332731
-0.18705907
-0.7830976
0.78799166
-0.19166895
-0.81967165
0.82428725
-0.19593775
-0.8580175
0.86229246
-0.19979536
-0.89822303
0.90208726
-0.20316388
-0.94037974
0.94375543
-0.20595593
-0.98458361
0.98738343
-0.20807413
-1.0309343
1.0330609
-0.20940965
-1.0795335
1.0808781
-0.20984149
-1.1304866
1.1309285
-0.20923338
-1.1839005
1.1833033
-0.20743978
-1.2398826
1.2381009
-0.20429384
-1.2985489
1.2954159
-0.19960854
-1.3600175
1.3553462
-0.1931814
-1.4244094
1.4179974
-0.18479209
-1.4918444
1.4834716
-0.17418696
-1.5624459
1.5518585
-0.16109938
-1.636335
1.6232664
-0.14522204
-1.7136551
1.6977979
-0.12626415
-1.7945533
1.7756161
-0.10367522
-1.8791978
1.8566304
-0.077676086
-1.9679211
1.9419477
-0.046445473
-2.059894
2.0286775
-2.1581771
2.123283
-0.00063409085
-0.050407545
-0.0015036925
-0.063601585
-0.0023936055
-0.062033466
-0.003352948
-0.067772435
-0.0043221888
-0.069324378
-0.0053681433
-0.073595924
-0.0064297257
-0.076456524
-0.0075710391
-0.08042377
-0.0087380056
-0.084003029
-0.0099796214
-0.088065286
-0.011263622
-0.092154577
-0.012615444
-0.0965088
-0.014024253
-0.10103224
-0.01549969
-0.10577594
-0.017041609
-0.1107342
-0.018654318
-0.11592101
-0.020339942
-0.12134598
-0.022102277
-0.12701911
-0.023944544
-0.13295193
-0.025870334
-0.1391554
-0.027883315
-0.14564183
-0.02998675
-0.15242363
-0.032184751
-0.15951356
-0.034481017
-0.16692575
-0.036880356
-0.17467363
-0.039385587
-0.18277332
-0.04200142
-0.19123918
-0.044731608
-0.20008878
-0.047580455
-0.20933851
-0.050551561
-0.21900714
-0.053649041
-0.2291131
-0.056876267
-0.23967696
-0.06023659
-0.25072024
-0.063733049
-0.26226436
-0.067368124
-0.274334
-0.071144198
-0.28695354
-0.075062497
-0.30014988
-0.079124584
-0.31395044
-0.083329858
-0.32838541
-0.087677959
-0.34348608
-0.092167322
-0.35928549
-0.096794874
-0.37581903
-0.10155626
-0.39312416
-0.10644641
-0.41123962
-0.11145823
-0.43020797
-0.11658311
-0.45007255
-0.1218108
-0.47088018
-0.12712859
-0.4926799
-0.13252212
-0.51552373
-0.13797476
-0.53946602
-0.14346704
-0.56456425
-0.14897681
-0.5908794
-0.15447875
-0.61847522
-0.15994446
-0.64741858
-0.16534173
-0.67777996
-0.17063417
-0.70963431
-0.17578122
-0.74305903
-0.18073724
-0.77813607
-0.18545087
-0.8149521
-0.18986518
-0.85359678
-0.19391612
-0.89416516
-0.1975323
-0.93675605
-0.2006336
-0.98147414
-0.20313183
-1.0284272
-0.20492733
-1.0777283
-0.20591065
-1.1294927
-0.20595597
-1.1838436
-0.20492788
-1.240898
-0.20267554
-1.3007874
-0.1990303
-1.3636477
-0.19380789
-1.4296155
-0.18680119
-1.4988335
-0.17778337
-1.5714447
-0.16650251
-1.6475954
-0.15269088
-1.7274451
-0.13604062
-1.8111811
-0.11619241
-1.8990219
-0.092982913
-1.9911044
-0.065379935
-2.0874795
-2.1894332
-0.00057098009
-0.04983624
-0.0013826581
-0.062789609
-0.0021865946
-0.061229621
-0.0030930179
-0.066865629
-0.0039829132
-0.068434101
-0.0049609095
-0.072617542
-0.0059379616
-0.075479083
-0.0070003559
-0.079360977
-0.0080803132
-0.082922663
-0.0092340822
-0.086911095
-0.010426645
-0.090961577
-0.01168355
-0.095251442
-0.012994861
-0.099720454
-0.014369363
-0.10440095
-0.015807479
-0.10929557
-0.017312907
-0.11441505
-0.018888963
-0.11976936
-0.020538605
-0.12536887
-0.022266102
-0.13122381
-0.024074271
-0.13734657
-0.025967592
-0.14374782
-0.027949579
-0.15044092
-0.030024104
-0.15743827
-0.032195949
-0.1647531
-0.034468384
-0.17240035
-0.036846626
-0.18039419
-0.039334141
-0.18875073
-0.041936019
-0.19748592
-0.044655847
-0.20661765
-0.047498814
-0.21616308
-0.050468077
-0.22614269
-0.05356802
-0.23657581
-0.05680251
-0.24748448
-0.060174299
-0.25889124
-0.063687044
-0.27081985
-0.067342982
-0.28329611
-0.071144418
-0.29634688
-0.07509193
-0.31000128
-0.079186588
-0.32428901
-0.083427925
-0.3392429
-0.087814186
-0.35489729
-0.092343277
-0.37128789
-0.097011831
-0.38845343
-0.10181438
-0.40643477
-0.10674492
-0.42527499
-0.11179543
-0.44501945
-0.11695667
-0.4657162
-0.12221666
-0.48741699
-0.12756283
-0.51017447
-0.13297946
-0.53404608
-0.13844835
-0.55909184
-0.14395005
-0.58537395
-0.14946121
-0.61296005
-0.15495589
-0.64191961
-0.16040487
-0.67232637
-0.16577521
-0.70425902
-0.17103033
-0.73779859
-0.17612805
-0.77303261
-0.18102291
-0.81005103
-0.18566244
-0.84895052
-0.18998923
-0.88983107
-0.19393826
-0.93279908
-0.19743792
-0.97796582
-0.20040735
-1.0254483
-0.20275658
-1.0753687
-0.2043844
-1.1278535
-0.20518246
-1.1830331
-0.20502455
-1.2410423
-0.20377106
-1.3020261
-0.201274
-1.3661286
-0.19736013
-1.4335117
-0.19184737
-1.5043271
-0.18452397
-1.5787474
-0.17516518
-1.6569321
-0.16352023
-1.7390666
-0.14930884
-1.8253679
-0.13224194
-1.916062
-0.11202785
-2.0112906
-0.088053248
-2.1114321
-2.216932
-0.0005159849
-0.049320013
-0.0012669842
-0.062038368
-0.0019988199
-0.060497446
-0.0028474259
-0.066016765
-0.0036722955
-0.067608993
-0.0045831427
-0.071706403
-0.0054837244
-0.074578191
-0.0064725068
-0.078371865
-0.0074727312
-0.08192209
-0.0085457041
-0.085837752
-0.0096543571
-0.089852533
-0.010824422
-0.094080963
-0.012047053
-0.098497386
-0.013330022
-0.10311752
-0.014674781
-0.10795033
-0.016085179
-0.11300414
-0.017564469
-0.11828953
-0.019116018
-0.12381675
-0.020743277
-0.12959596
-0.022450575
-0.13563864
-0.024241069
-0.14195666
-0.026119814
-0.14856148
-0.028090722
-0.15546663
-0.03015779
-0.16268526
-0.032326199
-0.17023113
-0.034599931
-0.1781196
-0.03698407
-0.18636569
-0.039483007
-0.19498603
-0.042102259
-0.20399739
-0.044845249
-0.21341904
-0.047717185
-0.22326964
-0.050722511
-0.23356931
-0.053865001
-0.24434074
-0.057148619
-0.25560631
-0.060576853
-0.26739023
-0.064152232
-0.27971927
-0.067877037
-0.29262053
-0.071753237
-0.30612345
-0.075781225
-0.3202593
-0.079961073
-0.33506123
-0.084292194
-0.35056424
-0.088771909
-0.36680613
-0.093397398
-0.38382578
-0.098164268
-0.40166561
-0.10306655
-0.42037028
-0.1080977
-0.43998571
-0.11324797
-0.46056318
-0.11850839
-0.48215365
-0.12386609
-0.50481363
-0.1293074
-0.52860143
-0.1348166
-0.55357906
-0.14037504
-0.57981169
-0.14596244
-0.60736856
-0.15155588
-0.63632176
-0.15712826
-0.66674925
-0.1626512
-0.69873098
-0.16809118
-0.73235309
-0.17341136
-0.76770646
-0.17857055
-0.80488537
-0.18352232
-0.84399171
-0.18821502
-0.88513071
-0.19259078
-0.92841495
-0.19658542
-0.97396203
-0.20012665
-1.021897
-0.203134
-1.0723503
-0.20551955
-1.1254559
-0.20717784
-1.1813615
-0.20800286
-1.2402027
-0.20786618
-1.3021468
-0.20663564
-1.3673417
-0.2041585
-1.4359698
-0.20025861
-1.5082062
-0.19475835
-1.5842252
-0.18744509
-1.6642212
-0.1780972
-1.7483889
-0.1664649
-1.8369733
-0.15227993
-1.9302178
-0.13523809
-2.0283031
-0.11492525
-2.1317196
-2.2405016
-0.00046217389
-0.048857608
-0.0011666013
-0.06133371
-0.0018213702
-0.059842405
-0.002610195
-0.065227679
-0.0033589729
-0.066859928
-0.004212865
-0.070852216
-0.0050467859
-0.073743957
-0.0059699107
-0.077448411
-0.0068992362
-0.080992418
-0.0078992845
-0.084837339
-0.0089337799
-0.088817654
-0.010027301
-0.092987037
-0.011173109
-0.097351154
-0.012377751
-0.10191243
-0.013643392
-0.10668422
-0.014973146
-0.11167389
-0.016370718
-0.11689144
-0.017839859
-0.12234706
-0.019384248
-0.12805099
-0.021007909
-0.13401437
-0.022715565
-0.14024837
-0.02451058
-0.14676579
-0.026398499
-0.153578
-0.028383949
-0.16069906
-0.030471503
-0.16814278
-0.032666502
-0.17592377
-0.03497423
-0.18405708
-0.03739971
-0.19255963
-0.039947965
-0.20144816
-0.042624302
-0.21074167
-0.045433711
-0.22045914
-0.048380784
-0.23062109
-0.051469999
-0.24125032
-0.054705831
-0.25236919
-0.058091556
-0.26400315
-0.061630366
-0.27617903
-0.065324858
-0.28892452
-0.069177013
-0.30226969
-0.073187645
-0.31624697
-0.077357184
-0.3308899
-0.081684602
-0.34623491
-0.086168721
-0.36231999
-0.090806227
-0.37918613
-0.09559339
-0.39687616
-0.10052568
-0.41543555
-0.10559603
-0.43491276
-0.11079714
-0.4553593
-0.11611976
-0.47682807
-0.12155307
-0.49937715
-0.12708542
-0.52306569
-0.13270221
-0.54795863
-0.13838789
-0.5741221
-0.1441243
-0.60162795
-0.14989099
-0.63055054
-0.15566552
-0.66096985
-0.16142197
-0.69296925
-0.16713103
-0.72663831
-0.17276125
-0.76207003
-0.17827589
-0.79936397
-0.18363489
-0.83862533
-0.18879242
-0.87996511
-0.19369793
-0.92350061
-0.19829444
-0.96935581
-0.20251877
-1.017662
-0.20630005
-1.0685572
-0.20955767
-1.1221853
-0.21220632
-1.1786986
-0.21414012
-1.2382532
-0.21525853
-1.3010111
-0.21542849
-1.3671528
-0.21452243
-1.4368552
-0.21238683
-1.5103193
-0.20885433
-1.5877332
-0.20374053
-1.6693087
-0.1968421
-1.7552595
-0.18793651
-1.8458494
-0.17679138
-1.9413308
-0.16311137
-2.041951
-0.14657575
-2.1482263
-2.2599748
-0.00041245737
-0.048444925
-0.0010758256
-0.06067012
-0.0016685357
-0.059249465
-0.0024020376
-0.064493925
-0.0030737598
-0.066187922
-0.0038765766
-0.070049116
-0.0046430438
-0.072977191
-0.0055060649
-0.076585075
-0.0063713961
-0.080126755
-0.007310294
-0.083898092
-0.0082850147
-0.087842566
-0.0093164236
-0.091955241
-0.010400126
-0.096267045
-0.011541089
-0.10077104
-0.012741996
-0.10548286
-0.014006731
-0.11040868
-0.015338787
-0.11555888
-0.016742044
-0.12094328
-0.018221014
-0.12657146
-0.019779708
-0.13245509
-0.021423249
-0.13860421
-0.023156482
-0.1450319
-0.024984595
-0.1517492
-0.026912745
-0.15877019
-0.02894661
-0.16610815
-0.031092076
-0.17377749
-0.033353965
-0.18179434
-0.035738678
-0.19017401
-0.038251622
-0.19893427
-0.040898287
-0.208094
-0.043684383
-0.21767199
-0.046614603
-0.22768975
-0.049694458
-0.23816928
-0.052927354
-0.24913505
-0.056317899
-0.26061128
-0.059869511
-0.27262601
-0.063584464
-0.28520808
-0.067464797
-0.29838778
-0.071512094
-0.312198
-0.075726434
-0.32667378
-0.080107707
-0.34185175
-0.084653886
-0.3577718
-0.089363196
-0.37447468
-0.09423233
-0.39200474
-0.099256147
-0.4104093
-0.10442948
-0.42973682
-0.10974649
-0.45003951
-0.11519823
-0.47137335
-0.12077665
-0.49379553
-0.12647026
-0.51736863
-0.13226837
-0.54215683
-0.1381569
-0.56822958
-0.14412074
-0.5956598
-0.15014273
-0.6245239
-0.15620346
-0.65490408
-0.16228112
-0.68688613
-0.16835193
-0.72056156
-0.17438778
-0.75602771
-0.18035818
-0.79338651
-0.18622806
-0.83274771
-0.19195926
-0.87422543
-0.19750782
-0.9179427
-0.20282507
-0.96402828
-0.20785604
-1.0126197
-0.21253921
-1.0638615
-0.21680543
-1.1179052
-0.22057736
-1.1749113
-0.22377078
-1.2350429
-0.22628365
-1.2984796
-0.22801534
-1.3654007
-0.228842
-1.4360061
-0.22863268
-1.5105041
-0.22723971
-1.5890995
-0.22449725
-1.6720223
-0.22022546
-1.7595007
-0.21423194
-1.8518105
-0.20630061
-1.9492269
-0.19617724
-2.0520396
-0.18359154
-2.1607796
-2.2751437
-0.0003699205
-0.048074791
-0.0010025191
-0.060037309
-0.0015406103
-0.058711137
-0.002228227
-0.063806068
-0.002842709
-0.065573191
-0.0035947638
-0.069296793
-0.0043082713
-0.0722634
-0.005110246
-0.075782801
-0.0059354659
-0.07930122
-0.0068275647
-0.08300566
-0.007755376
-0.086914404
-0.0087360825
-0.090974164
-0.0097686967
-0.09523404
-0.010857536
-0.099681788
-0.012006589
-0.10433337
-0.013219369
-0.10919544
-0.014500741
-0.11427703
-0.015854809
-0.1195887
-0.017286393
-0.12513934
-0.01880091
-0.13094001
-0.020402998
-0.13700152
-0.022098906
-0.14333537
-0.023893907
-0.14995353
-0.025793764
-0.15686963
-0.02780492
-0.16409626
-0.029933112
-0.17164852
-0.032185347
-0.17954128
-0.034567308
-0.18779118
-0.037084862
-0.19641579
-0.039744753
-0.20543313
-0.042552126
-0.21486359
-0.045512701
-0.22472808
-0.048631279
-0.23504954
-0.051913091
-0.24585201
-0.055361281
-0.25716179
-0.058979592
-0.26900633
-0.062771184
-0.28141503
-0.066737757
-0.29441966
-0.070880425
-0.30805369
-0.075199798
-0.32235265
-0.079695765
-0.33735392
-0.084366984
-0.35309859
-0.089211789
-0.36962774
-0.094226897
-0.38698736
-0.099409259
-0.4052245
-0.1047542
-0.42438927
-0.11025611
-0.44453479
-0.11590938
-0.46571707
-0.1217059
-0.48799576
-0.12763815
-0.51143289
-0.13369599
-0.53609521
-0.13986898
-0.56205252
-0.14614536
-0.58937902
-0.1525109
-0.61815357
-0.15895043
-0.64845936
-0.16544604
-0.68038486
-0.17197841
-0.71402301
-0.17852507
-0.7494743
-0.18506064
-0.78684353
-0.19155712
-0.8262431
-0.19798186
-0.86779173
-0.2042991
-0.91161559
-0.21046772
-0.95784874
-0.21644202
-1.0066333
-0.22217036
-1.0581198
-0.22759387
-1.1124668
-0.23264704
-1.1698417
-0.23725703
-1.2304147
-0.24133846
-1.2943781
-0.24479923
-1.3619178
-0.24754059
-1.4332404
-0.24944468
-1.5085732
-0.2503811
-1.5881338
-0.25021199
-1.6721597
-0.24877393
-1.7609051
-0.24589897
-1.8546496
-0.24140514
-1.9536819
-0.235062
-2.0583449
-0.22664194
-2.1691632
-2.2857765
-0.00032638354
-0.047748204
-0.00093306727
-0.059430422
-0.0014223937
-0.058221589
-0.0020648885
-0.063163343
-0.0026375804
-0.065000252
-0.0033640466
-0.068570069
-0.004045222
-0.071581951
-0.004831831
-0.074995905
-0.0056139114
-0.078518836
-0.0064583643
-0.082160887
-0.0073425995
-0.086029832
-0.0082792347
-0.090037174
-0.0092702163
-0.094242684
-0.010319118
-0.098632491
-0.011430314
-0.10322176
-0.012608373
-0.10801694
-0.013857248
-0.11302769
-0.015182924
-0.11826254
-0.016590248
-0.1237315
-0.018084929
-0.12944479
-0.019672855
-0.13541302
-0.021360092
-0.14164752
-0.023153035
-0.14815995
-0.025059026
-0.15496296
-0.027083657
-0.16207091
-0.029234548
-0.16949687
-0.031517984
-0.17725705
-0.033940945
-0.18536737
-0.036510092
-0.19384575
-0.039231629
-0.20271065
-0.042111426
-0.21198279
-0.045155343
-0.22168311
-0.048368608
-0.23183515
-0.05175535
-0.24246407
-0.055319857
-0.25359602
-0.059065652
-0.26525919
-0.062994902
-0.27748435
-0.067109825
-0.29030321
-0.071411688
-0.3037502
-0.075900968
-0.31786164
-0.080577397
-0.33267564
-0.085440842
-0.34823316
-0.090489088
-0.36457738
-0.095720437
-0.38175374
-0.10113227
-0.39981023
-0.10672113
-0.41879779
-0.1124833
-0.43876979
-0.11841438
-0.45978294
-0.12450908
-0.48189778
-0.13076151
-0.50517691
-0.13716522
-0.52968765
-0.14371201
-0.55550154
-0.15039344
-0.58269305
-0.15719934
-0.61134273
-0.16411857
-0.64153476
-0.17113828
-0.67335928
-0.17824319
-0.70691167
-0.18541658
-0.74229386
-0.19263924
-0.77961311
-0.19988907
-0.81898472
-0.20714097
-0.86053039
-0.2143664
-0.9043797
-0.22153264
-0.9506709
-0.22860323
-0.99954981
-0.23553576
-1.0511729
-0.24228332
-1.1057033
-0.24879155
-1.1633157
-0.25499807
-1.2241885
-0.26083553
-1.2885189
-0.26622988
-1.3564994
-0.27108601
-1.4283577
-0.2753158
-1.5043142
-0.27880373
-1.5846138
-0.28143054
-1.6694981
-0.28306096
-1.7592376
-0.2835531
-1.8541179
-0.28274592
-1.9544464
-0.28044094
-2.0606082
-0.27645189
-2.173111
-2.2916003
-0.00028416253
-0.047463848
-0.00087143034
-0.058842962
-0.0013211115
-0.057771696
-0.00194349
-0.062540746
-0.0024944191
-0.064449088
-0.0031978845
-0.067866358
-0.0038441326
-0.070935443
-0.0046063362
-0.074233427
-0.0053572411
-0.077767642
-0.0061694196
-0.081348403
-0.0070266451
-0.085172285
-0.007936635
-0.089126844
-0.0089038533
-0.093275108
-0.0099318105
-0.097604156
-0.011025553
-0.10212762
-0.012189912
-0.10685216
-0.013430568
-0.11178659
-0.014752956
-0.11693968
-0.01616313
-0.12232083
-0.017667924
-0.12793947
-0.019273458
-0.13380694
-0.020987368
-0.13993303
-0.022816151
-0.14633055
-0.02476734
-0.15301112
-0.026848673
-0.15998889
-0.029067093
-0.16727772
-0.031430299
-0.17489307
-0.033945316
-0.18285154
-0.036618732
-0.19117147
-0.039457485
-0.19987098
-0.042467751
-0.20897155
-0.045654668
-0.21849516
-0.049023171
-0.22846555
-0.052578083
-0.238908
-0.05632306
-0.2498498
-0.060260809
-0.26132012
-0.064394131
-0.27334962
-0.068724781
-0.28597106
-0.073253667
-0.29921971
-0.077981717
-0.31313188
-0.082908773
-0.32774675
-0.088034347
-0.34310562
-0.093358007
-0.35925161
-0.098878952
-0.37623052
-0.10459536
-0.39409137
-0.1105057
-0.41288482
-0.11660778
-0.43266485
-0.12289935
-0.45348829
-0.12937783
-0.47541596
-0.13603964
-0.49851147
-0.14288146
-0.5228419
-0.14989897
-0.54847975
-0.1570869
-0.57550045
-0.16443975
-0.60398479
-0.17195029
-0.63401864
-0.17961057
-0.66569289
-0.18741042
-0.69910511
-0.19533938
-0.73435753
-0.20338377
-0.77156057
-0.21152816
-0.81083133
-0.21975503
-0.85229354
-0.22804359
-0.89608005
-0.23637
-0.94233215
-0.24470616
-0.99119992
-0.25302122
-1.0428426
-0.26127815
-1.0974293
-0.26943614
-1.1551387
-0.27744469
-1.2161587
-0.28525118
-1.2806888
-0.29279004
-1.3489344
-0.29999591
-1.421123
-0.30678901
-1.4974892
-0.31308064
-1.5782871
-0.31876558
-1.663775
-0.3237341
-1.7542282
-0.32786976
-1.8499384
-0.33103595
-1.9512331
-0.3330788
-2.0585193
-0.3338271
-2.1723154
-2.2923
-0.00024582945
-0.047217835
-0.00082195033
-0.058266657
-0.0012415835
-0.057351861
-0.0018888265
-0.061893295
-0.0024208884
-0.063916803
-0.0030992937
-0.067187719
-0.0037211919
-0.070313297
-0.0044434809
-0.073510876
-0.005182603
-0.077028244
-0.0059786928
-0.080552021
-0.006825666
-0.084325005
-0.0077271302
-0.088225055
-0.0086899521
-0.092311944
-0.0097181015
-0.096575645
-0.010817326
-0.10102801
-0.011993398
-0.10567568
-0.013252591
-0.11052697
-0.014601646
-0.11559017
-0.016047441
-0.12087456
-0.017596795
-0.12638961
-0.019258469
-0.13214473
-0.021039066
-0.13815187
-0.022947622
-0.1444214
-0.024991596
-0.15096652
-0.027178997
-0.15780083
-0.029518095
-0.16493792
-0.032016456
-0.17239396
-0.034681201
-0.18018601
-0.037519859
-0.18833198
-0.040538502
-0.19685145
-0.04374278
-0.20576633
-0.047138364
-0.21509857
-0.050729652
-0.2248732
-0.054520762
-0.23511575
-0.058514856
-0.2458545
-0.062714581
-0.2571191
-0.067121979
-0.26894085
-0.071738532
-0.28135303
-0.076565753
-0.29439091
-0.081604082
-0.30809185
-0.086854195
-0.32249482
-0.092316634
-0.33764123
-0.097991658
-0.35357447
-0.10387908
-0.37034083
-0.10997955
-0.38798844
-0.11629342
-0.40656828
-0.12282053
-0.42613486
-0.12956119
-0.44674449
-0.13651552
-0.46845823
-0.14368365
-0.49133963
-0.15106479
-0.51545673
-0.15865913
-0.54088101
-0.16646517
-0.56768959
-0.17448144
-0.59596325
-0.18270592
-0.62578837
-0.19113537
-0.65725708
-0.19976598
-0.6904675
-0.20859214
-0.72552362
-0.21760743
-0.76253672
-0.22680356
-0.80162569
-0.23616967
-0.84291686
-0.2456937
-0.88654426
-0.25536045
-0.93265227
-0.26515229
-0.98139341
-0.27504761
-1.0329308
-0.28502139
-1.0874372
-0.29504373
-1.1450958
-0.30508086
-1.2060987
-0.31509035
-1.2706538
-0.32502695
-1.3389695
-0.33484074
-1.4112778
-0.34446499
-1.4878302
-0.35383565
-1.5688781
-0.36287125
-1.6546976
-0.37148489
-1.7455695
-0.37957765
-1.8417972
-0.38704996
-1.943709
-0.39377726
-2.0517412
-0.39962846
-2.1664102
-2.287519
-0.00021327116
-0.04700439
-0.00079110736
-0.057688647
-0.0011888813
-0.056953896
-0.0018470873
-0.061234891
-0.0023508169
-0.063412862
-0.0030229906
-0.066515323
-0.0036435182
-0.069692534
-0.004360481
-0.072793665
-0.0051013988
-0.076287064
-0.0058972166
-0.079755926
-0.0067514073
-0.083470522
-0.0076646205
-0.087311533
-0.0086451706
-0.091331068
-0.0096978951
-0.095522576
-0.01082949
-0.099896052
-0.012046725
-0.10445806
-0.013356866
-0.10921643
-0.014767362
-0.11417925
-0.01628679
-0.11935468
-0.017923238
-0.12475269
-0.019685161
-0.13038231
-0.021581666
-0.13625483
-0.023621096
-0.14238141
-0.025812363
-0.14877465
-0.028164383
-0.15544817
-0.030684741
-0.16241689
-0.033381443
-0.16969655
-0.036261919
-0.17730477
-0.039333022
-0.18526007
-0.042600033
-0.19358358
-0.046069368
-0.20229608
-0.049744807
-0.21142216
-0.053630992
-0.22098598
-0.057730504
-0.23101514
-0.062045924
-0.2415379
-0.066579915
-0.25258385
-0.071334107
-0.2641853
-0.076309734
-0.27637595
-0.081508243
-0.28919084
-0.086931164
-0.30266725
-0.092579756
-0.31684441
-0.098455587
-0.33176344
-0.10456012
-0.34746782
-0.11089578
-0.36400288
-0.11746477
-0.38141698
-0.12426933
-0.39976103
-0.13131301
-0.41908825
-0.13859822
-0.4394561
-0.14612889
-0.46092408
-0.1539083
-0.48355642
-0.16194026
-0.50742062
-0.17022762
-0.5325891
-0.17877421
-0.55913801
-0.18758333
-0.58714866
-0.19665751
-0.61670817
-0.20599919
-0.64790876
-0.21561044
-0.6808489
-0.22549199
-0.71563393
-0.23564391
-0.75237578
-0.24606484
-0.79119471
-0.25675319
-0.83221731
-0.26770417
-0.87558078
-0.27891218
-0.92143027
-0.29036935
-0.96992057
-0.30206519
-1.0212174
-0.31398644
-1.0754963
-0.32611651
-1.1329437
-0.33843266
-1.1937578
-0.35091221
-1.2581466
-0.36352333
-1.3263275
-0.37622671
-1.3985401
-0.38898993
-1.475029
-0.40175719
-1.5560689
-0.41447121
-1.6419377
-0.42706521
-1.7329259
-0.43947807
-1.8293308
-0.45162376
-1.9315063
-0.4634189
-2.0398894
-0.47476824
-2.1549986
-2.276834
-0.00019239201
-0.046811834
-0.00078971468
-0.057091159
-0.001183838
-0.056559592
-0.001835966
-0.060582575
-0.0023332394
-0.062915388
-0.0030088269
-0.065839525
-0.0036435094
-0.069057628
-0.0043645774
-0.072072361
-0.005126888
-0.075524505
-0.0059432106
-0.07893934
-0.0068259866
-0.082587468
-0.0077748017
-0.086362424
-0.0087991935
-0.090306366
-0.0099052966
-0.094416145
-0.011100923
-0.09870008
-0.012394086
-0.10316454
-0.013793386
-0.10781674
-0.015307834
-0.11266439
-0.01694626
-0.11771582
-0.018718825
-0.12297966
-0.020634557
-0.12846609
-0.022703349
-0.13418553
-0.024934254
-0.14014996
-0.027336594
-0.14637174
-0.029919092
-0.15286507
-0.032689978
-0.15964536
-0.035656385
-0.16672945
-0.038825504
-0.17413492
-0.042202773
-0.18188202
-0.045794096
-0.18999143
-0.049603105
-0.19848619
-0.053633707
-0.20739062
-0.057888917
-0.21672976
-0.062370984
-0.22653199
-0.067082023
-0.2368257
-0.072023917
-0.24764071
-0.077198011
-0.25900987
-0.082606447
-0.27096608
-0.088250879
-0.28354486
-0.094133782
-0.29678268
-0.10025784
-0.31071855
-0.10662624
-0.32539308
-0.11324302
-0.34084893
-0.12011231
-0.35713129
-0.12723888
-0.3742879
-0.13462862
-0.39236856
-0.14228729
-0.4114266
-0.15022151
-0.43151862
-0.15843798
-0.45270405
-0.16694419
-0.47504631
-0.17574766
-0.49861287
-0.18485686
-0.52347521
-0.19427949
-0.54971021
-0.20402392
-0.57739854
-0.21409791
-0.60662789
-0.22451029
-0.63748942
-0.23526829
-0.67008318
-0.24637965
-0.70451401
-0.25785162
-0.74089427
-0.26969096
-0.77934474
-0.28190314
-0.81999324
-0.29449325
-0.86297736
-0.30746503
-0.90844357
-0.32082083
-0.95654802
-0.33456171
-1.0074577
-0.34868638
-1.0613504
-0.36319089
-1.1184154
-0.37806805
-1.178854
-0.39331095
-1.2428738
-0.40889958
-1.3107055
-0.4248217
-1.3825808
-0.44105062
-1.4587587
-0.45756271
-1.5395111
-0.47432538
-1.6251249
-0.49129178
-1.7159049
-0.50841891
-1.8121445
-0.52565568
-1.9142067
-0.54295412
-2.0225274
-0.56024853
-2.1376322
-2.2597633
-0.00017294344
-0.046638735
-0.00079820841
-0.056465738
-0.0011965705
-0.056161059
-0.0018608681
-0.0599181
-0.0023746747
-0.062401392
-0.0030645694
-0.06514943
-0.0037272032
-0.068394783
-0.0044711793
-0.071328161
-0.0052722436
-0.074723205
-0.0061309702
-0.078080364
-0.0070660959
-0.081652079
-0.0080778128
-0.085350428
-0.0091765063
-0.089207379
-0.010370015
-0.093222325
-0.011667545
-0.097402222
-0.013078612
-0.10175312
-0.014613181
-0.1062818
-0.016281592
-0.11099559
-0.018094375
-0.11590263
-0.020061737
-0.12101187
-0.022194382
-0.12633299
-0.024502202
-0.13187722
-0.026994677
-0.13765697
-0.02968124
-0.14368462
-0.032569861
-0.14997586
-0.035667943
-0.15654666
-0.038982713
-0.16341402
-0.042518949
-0.17059799
-0.046281694
-0.17811853
-0.050274601
-0.18599772
-0.054500753
-0.19425918
-0.058962814
-0.20292764
-0.063661752
-0.21202984
-0.068600418
-0.22159227
-0.073779883
-0.2316451
-0.079201777
-0.2422176
-0.08486872
-0.25334162
-0.090782767
-0.26505061
-0.096947937
-0.27737815
-0.10336789
-0.29036106
-0.11004718
-0.30403745
-0.11699133
-0.31844697
-0.12420702
-0.3336311
-0.13170117
-0.3496348
-0.13948189
-0.36650464
-0.14755815
-0.38428952
-0.15593934
-0.40304237
-0.16463566
-0.42281896
-0.17365836
-0.44367769
-0.18301868
-0.46568197
-0.19272907
-0.48889806
-0.20280145
-0.51339795
-0.2132498
-0.53925649
-0.224087
-0.5665554
-0.23532746
-0.59538084
-0.24698468
-0.6258249
-0.25907362
-0.65798612
-0.27160849
-0.6919701
-0.28460369
-0.72788898
-0.29807449
-0.76586267
-0.31203459
-0.8060205
-0.32649846
-0.84849932
-0.34148008
-0.89344602
-0.35699268
-0.94101752
-0.37304838
-0.99138186
-0.38965903
-1.0447171
-0.40683495
-1.1012139
-0.42458527
-1.1610749
-0.44291299
-1.2245138
-0.46182279
-1.2917594
-0.48131452
-1.3630486
-0.50138833
-1.4386399
-0.52203855
-1.5188111
-0.54325077
-1.603858
-0.56501488
-1.6940807
-0.5873033
-1.7897908
-0.61010504
-1.8913359
-0.63338741
-1.999173
-0.6571272
-2.1138089
-2.2357619
-0.00015911295
-0.046479476
-0.00082684687
-0.055797858
-0.0012353328
-0.055752412
-0.001927916
-0.05922535
-0.0024730059
-0.061856123
-0.0031906818
-0.064431567
-0.0039034397
-0.067681826
-0.0046907278
-0.070540662
-0.0055538423
-0.073859868
-0.0064823686
-0.077151602
-0.0074994067
-0.080634793
-0.0086072908
-0.084242281
-0.0098175667
-0.087996826
-0.011140211
-0.091899387
-0.012586025
-0.095956098
-0.014166336
-0.10017248
-0.015892566
-0.10455523
-0.017776266
-0.10911153
-0.019828908
-0.1138496
-0.022061656
-0.11877871
-0.024484974
-0.12390923
-0.02710911
-0.12925262
-0.029943499
-0.13482208
-0.032995818
-0.14063178
-0.036273621
-0.1466975
-0.039782779
-0.1530369
-0.043527944
-0.15966823
-0.047513133
-0.16661212
-0.051741093
-0.17388985
-0.056213739
-0.18152431
-0.060932389
-0.1895397
-0.065898707
-0.19796043
-0.071113759
-0.20681384
-0.076578966
-0.21612603
-0.082296538
-0.22592642
-0.088268933
-0.236244
-0.094499464
-0.24710978
-0.10099313
-0.25855553
-0.10775425
-0.27061549
-0.1147899
-0.28332375
-0.12210699
-0.29671854
-0.1297149
-0.31083707
-0.13762215
-0.32572169
-0.14583962
-0.34141496
-0.15437939
-0.35796228
-0.16325322
-0.37541286
-0.17247486
-0.39381761
-0.18205889
-0.41323151
-0.1920201
-0.43371271
-0.20237494
-0.45532298
-0.21313979
-0.47812863
-0.22433304
-0.50219963
-0.23597225
-0.52761167
-0.24807669
-0.55444473
-0.2606666
-0.58278403
-0.27376225
-0.61272157
-0.28738454
-0.64435528
-0.30155601
-0.67778907
-0.31629887
-0.71313544
-0.33163562
-0.75051394
-0.34759008
-0.79005261
-0.36418647
-0.83188781
-0.381449
-0.87616649
-0.39940173
-0.92304562
-0.41807042
-0.97269156
-0.43747955
-1.0252836
-0.45765344
-1.0810125
-0.47861592
-1.1400814
-0.50038831
-1.2027064
-0.52299442
-1.2691141
-0.54645234
-1.3395468
-0.57077938
-1.4142641
-0.59599465
-1.4935418
-0.62211644
-1.5776765
-0.6491487
-1.6669826
-0.67709808
-1.7617694
-0.70597558
-1.8623825
-0.73578572
-1.9692815
-0.76652584
-2.0829718
-2.2042087
-0.00015147857
-0.046327861
-0.00088097357
-0.055068225
-0.0013020462
-0.055331188
-0.0020395819
-0.058487657
-0.0026335738
-0.061261963
-0.0033974607
-0.063667503
-0.0041830793
-0.066896021
-0.0050387949
-0.069684748
-0.00598972
-0.072908734
-0.0070196151
-0.076121486
-0.0081540078
-0.079500166
-0.0093987956
-0.082997246
-0.010767088
-0.086628272
-0.012270973
-0.090395225
-0.013923143
-0.094303635
-0.015736312
-0.098359003
-0.017723216
-0.102568
-0.019896193
-0.1069382
-0.022267221
-0.1114782
-0.024847458
-0.11619808
-0.02764728
-0.12110899
-0.030675563
-0.1262239
-0.03393997
-0.13155721
-0.037447181
-0.13712407
-0.041201635
-0.14294252
-0.045207293
-0.14903068
-0.049465883
-0.15540903
-0.05397906
-0.1620983
-0.058747725
-0.16912048
-0.063772096
-0.17649919
-0.069052998
-0.184258
-0.074590915
-0.19242164
-0.080387714
-0.2010161
-0.086445368
-0.21006736
-0.092767579
-0.21960311
-0.099358197
-0.22965219
-0.10622342
-0.24024326
-0.11336945
-0.25140809