/*--------------------------------*- C++ -*----------------------------------*\
| =========                 |                                                 |
| \\      /  F ield         | OpenFOAM: The Open Source CFD Toolbox           |
|  \\    /   O peration     | Version:  2512                                  |
|   \\  /    A nd           | Website:  www.openfoam.com                      |
|    \\/     M anipulation  |                                                 |
\*---------------------------------------------------------------------------*/
FoamFile
{
    version     2.0;
    format      ascii;
    arch        "LSB;label=32;scalar=64";
    class       volScalarField;
    location    "0.141";
    object      rho;
}
// * * * * * * * * * * * * * * * * * * * * * * * * * * * * * * * * * * * * * //

dimensions      [1 -3 0 0 0 0 0];

internalField   nonuniform List<scalar> 
16000
(
1.064531
1.095197
1.078723
1.0889325
1.0829638
1.0873364
1.0854351
1.0875949
1.0873435
1.0886385
1.0891251
1.0901326
1.0909392
1.0919085
1.0928691
1.0938939
1.0949543
1.0960601
1.0972082
1.0983991
1.0996326
1.1009082
1.1022255
1.1035837
1.1049821
1.1064195
1.1078947
1.1094059
1.1109514
1.112529
1.1141364
1.1157708
1.1174292
1.1191084
1.1208048
1.1225147
1.1242341
1.1259589
1.1276846
1.129407
1.1311215
1.1328236
1.1345089
1.136173
1.1378119
1.1394215
1.1409979
1.1425379
1.144038
1.1454956
1.1469081
1.1482733
1.1495894
1.150855
1.1520687
1.1532298
1.1543378
1.1553923
1.1563933
1.1573409
1.1582352
1.1590768
1.1598659
1.1606029
1.1612881
1.1619218
1.1625042
1.1630362
1.1635186
1.1639519
1.164336
1.1646699
1.1649531
1.1651875
1.1653761
1.1655241
1.1656214
1.1656126
1.1659166
1.1650838
1.061314
1.0925319
1.0754147
1.0862676
1.0799746
1.0847174
1.0826291
1.0850218
1.0847323
1.0861436
1.0866835
1.0877654
1.0886528
1.089697
1.0907432
1.0918521
1.0930019
1.0941991
1.0954418
1.0967299
1.0980631
1.0994406
1.1008616
1.1023253
1.1038302
1.105375
1.1069579
1.1085769
1.1102295
1.1119132
1.113625
1.1153616
1.1171195
1.1188948
1.1206834
1.1224811
1.1242831
1.126085
1.1278819
1.129669
1.1314416
1.1331949
1.1349244
1.1366258
1.1382948
1.1399278
1.1415211
1.1430716
1.1445766
1.1460337
1.1474409
1.1487965
1.1500993
1.1513485
1.1525433
1.1536836
1.1547693
1.1558006
1.1567778
1.1577016
1.1585724
1.159391
1.160158
1.160874
1.1615394
1.1621545
1.1627198
1.1632358
1.1637033
1.1641229
1.1644945
1.1648168
1.165089
1.1653124
1.1654909
1.1656267
1.165704
1.1657366
1.1658915
1.1652113
1.058516
1.0900844
1.0726839
1.0837699
1.0773854
1.0822816
1.0802155
1.0826896
1.0824735
1.0839503
1.0845787
1.0857329
1.0867122
1.0878404
1.0889804
1.090183
1.0914309
1.0927285
1.0940741
1.0954674
1.0969077
1.0983939
1.0999251
1.1014997
1.1031163
1.1047728
1.106467
1.1081964
1.1099582
1.1117489
1.1135652
1.1154029
1.1172581
1.119126
1.1210021
1.1228813
1.1247586
1.1266288
1.1284867
1.1303273
1.1321455
1.1339366
1.1356959
1.1374192
1.1391026
1.1407425
1.142336
1.1438803
1.1453733
1.1468131
1.1481985
1.1495284
1.1508024
1.1520201
1.1531816
1.1542872
1.1553375
1.1563331
1.1572749
1.1581638
1.1590008
1.1597867
1.1605226
1.1612091
1.1618468
1.1624361
1.1629774
1.1634711
1.1639181
1.1643189
1.1646733
1.16498
1.1652377
1.165448
1.1656142
1.1657349
1.1658008
1.1658506
1.165881
1.1653852
1.0560289
1.0879059
1.0701479
1.0815664
1.0750386
1.0801894
1.0781072
1.0807157
1.0805607
1.0821283
1.0828548
1.0840951
1.0851809
1.0864062
1.0876535
1.0889626
1.0903208
1.0917306
1.0931906
1.0947001
1.0962582
1.0978635
1.0995148
1.1012101
1.1029474
1.1047242
1.1065377
1.1083847
1.1102615
1.1121642
1.1140883
1.1160292
1.117982
1.1199412
1.1219014
1.1238572
1.1258027
1.1277324
1.1296407
1.1315223
1.1333721
1.1351852
1.1369573
1.1386845
1.1403632
1.1419904
1.1435638
1.1450813
1.1465415
1.1479434
1.1492865
1.1505707
1.1517961
1.1529633
1.1540731
1.1551264
1.1561244
1.1570682
1.1579592
1.1587987
1.1595881
1.1603284
1.161021
1.1616666
1.1622659
1.1628195
1.1633276
1.1637906
1.1642092
1.1645838
1.1649143
1.165199
1.1654366
1.1656281
1.1657755
1.165877
1.1659334
1.1659643
1.1659289
1.1655435
1.0539281
1.0861277
1.0680434
1.079778
1.0730315
1.0784749
1.0764076
1.0791388
1.0790747
1.0807335
1.0815785
1.0829121
1.0841156
1.0854473
1.0868103
1.0882348
1.0897117
1.0912424
1.0928256
1.0944604
1.0961455
1.0978792
1.0996596
1.1014843
1.1033506
1.1052551
1.1071942
1.1091638
1.1111594
1.1131761
1.1152085
1.1172509
1.1192976
1.1213423
1.123379
1.1254012
1.1274029
1.1293781
1.1313209
1.133226
1.1350884
1.1369035
1.1386673
1.1403765
1.1420283
1.1436203
1.1451511
1.1466197
1.1480254
1.1493682
1.1506487
1.1518675
1.1530257
1.1541248
1.1551661
1.1561513
1.1570821
1.1579603
1.1587876
1.1595658
1.1602963
1.1609806
1.1616201
1.1622158
1.1627684
1.1632784
1.1637461
1.1641717
1.1645557
1.1648984
1.1651997
1.1654577
1.1656709
1.1658398
1.1659644
1.1660452
1.1660895
1.1660933
1.1660014
1.1657226
1.0522247
1.0847313
1.0663698
1.0784126
1.0716299
1.0771992
1.0751409
1.0780238
1.078062
1.0798194
1.0807927
1.0822224
1.0835499
1.0849953
1.0864821
1.0880322
1.0896389
1.0913027
1.0930221
1.0947954
1.0966208
1.098496
1.100418
1.1023837
1.1043893
1.1064305
1.1085027
1.1106005
1.1127185
1.1148504
1.1169898
1.1191301
1.1212645
1.1233859
1.1254874
1.1275623
1.129604
1.1316063
1.1335634
1.1354701
1.1373219
1.1391146
1.1408452
1.1425111
1.1441104
1.145642
1.1471055
1.1485008
1.1498286
1.1510901
1.1522866
1.1534198
1.1544919
1.155505
1.1564612
1.1573628
1.1582121
1.1590113
1.1597625
1.1604677
1.1611287
1.1617471
1.1623243
1.1628615
1.1633594
1.1638185
1.1642389
1.1646207
1.1649643
1.1652697
1.1655367
1.1657633
1.1659482
1.1660902
1.166188
1.166246
1.1662742
1.166241
1.1661067
1.1659183
1.0509166
1.0837298
1.0651155
1.0774637
1.0706224
1.0763725
1.0743872
1.0773768
1.0775475
1.07937
1.0804811
1.0820154
1.0834808
1.0850569
1.0866852
1.0883796
1.0901352
1.091951
1.0938248
1.0957544
1.097737
1.0997691
1.1018469
1.1039661
1.1061217
1.1083082
1.1105195
1.1127491
1.11499
1.1172348
1.1194759
1.1217056
1.123916
1.1260995
1.1282485
1.130356
1.1324151
1.1344199
1.136365
1.1382458
1.1400584
1.1417998
1.143468
1.1450616
1.1465801
1.1480238
1.1493934
1.1506903
1.1519165
1.1530742
1.1541659
1.1551944
1.1561626
1.1570732
1.1579293
1.1587336
1.1594889
1.1601976
1.1608621
1.1614847
1.1620674
1.1626117
1.1631192
1.1635909
1.1640277
1.1644299
1.1647975
1.1651304
1.1654288
1.1656926
1.1659211
1.1661128
1.1662658
1.1663776
1.1664456
1.1664797
1.1664879
1.1664115
1.166242
1.1661424
1.0499379
1.0830593
1.0642131
1.0769183
1.0700193
1.0759904
1.0740205
1.0771887
1.0774028
1.0793491
1.0806382
1.0823086
1.0839411
1.0856762
1.0874713
1.0893349
1.0912627
1.0932529
1.0953026
1.0974084
1.0995664
1.1017722
1.1040204
1.1063053
1.1086204
1.1109586
1.1133123
1.1156734
1.1180334
1.1203836
1.1227151
1.1250192
1.1272872
1.129511
1.1316826
1.133795
1.1358419
1.1378178
1.1397182
1.1415395
1.1432792
1.1449359
1.1465088
1.1479983
1.1494056
1.1507324
1.151981
1.1531543
1.1542555
1.1552881
1.1562555
1.1571614
1.1580095
1.1588033
1.1595462
1.1602414
1.160892
1.1615007
1.16207
1.1626022
1.1630994
1.1635631
1.1639949
1.1643958
1.1647664
1.165107
1.1654175
1.1656976
1.165947
1.1661655
1.1663523
1.1665061
1.1666246
1.1667033
1.1667395
1.1667489
1.1667331
1.1666087
1.1664128
1.1663979
1.0493073
1.0827285
1.0636675
1.0768011
1.0697352
1.0758305
1.0739992
1.0772754
1.0778055
1.0798715
1.0813642
1.0831935
1.0850156
1.0869349
1.0889214
1.0909789
1.0931032
1.0952912
1.0975388
1.0998413
1.1021932
1.1045884
1.10702
1.1094803
1.111961
1.114453
1.1169469
1.1194329
1.1219009
1.1243409
1.1267429
1.1290974
1.1313951
1.1336278
1.135788
1.137869
1.1398655
1.1417734
1.1435895
1.1453121
1.1469405
1.1484751
1.1499173
1.1512694
1.1525343
1.1537154
1.1548168
1.1558426
1.1567973
1.1576855
1.1585115
1.1592797
1.1599944
1.1606596
1.161279
1.161856
1.1623939
1.1628956
1.1633634
1.1637998
1.1642065
1.1645853
1.1649374
1.1652637
1.1655647
1.1658406
1.166091
1.1663155
1.1665134
1.1666843
1.1668273
1.1669411
1.1670231
1.1670666
1.1670703
1.1670545
1.1670108
1.1668362
1.1666242
1.1666908
1.0490689
1.0827834
1.0635255
1.0770209
1.0698893
1.0763679
1.0746833
1.0780747
1.0787887
1.0809982
1.082725
1.0847433
1.0867828
1.0889165
1.0911229
1.0934023
1.0957498
1.0981606
1.1006291
1.1031485
1.1057116
1.10831
1.1109344
1.113575
1.1162212
1.1188617
1.1214853
1.1240801
1.1266347
1.129138
1.131579
1.133948
1.136236
1.1384352
1.140539
1.1425425
1.144442
1.1462353
1.1479217
1.1495018
1.1509772
1.1523509
1.1536263
1.1548079
1.1559004
1.1569092
1.1578395
1.158697
1.159487
1.1602149
1.1608859
1.1615047
1.1620761
1.1626043
1.1630931
1.163546
1.1639662
1.1643565
1.1647192
1.1650566
1.1653703
1.1656617
1.1659319
1.1661817
1.1664115
1.166621
1.1668099
1.1669774
1.1671226
1.1672446
1.1673426
1.1674155
1.1674597
1.1674672
1.1674387
1.1673976
1.1673218
1.1670969
1.1668806
1.1670258
1.0492956
1.0832997
1.0638582
1.0775784
1.070607
1.0772226
1.0758962
1.0793345
1.0804351
1.0828123
1.0848075
1.0870511
1.0893397
1.0917208
1.0941785
1.0967101
1.099309
1.1019684
1.1046801
1.107435
1.1102232
1.1130333
1.1158536
1.1186713
1.1214732
1.1242459
1.1269759
1.1296501
1.1322556
1.1347808
1.1372147
1.1395482
1.1417732
1.1438838
1.1458756
1.147746
1.1494942
1.151121
1.1526285
1.1540203
1.1553007
1.1564753
1.1575499
1.1585309
1.1594249
1.1602385
1.1609785
1.1616512
1.1622628
1.1628192
1.163326
1.1637881
1.1642104
1.1645969
1.1649515
1.1652777
1.1655782
1.1658558
1.1661125
1.1663503
1.1665705
1.1667743
1.1669626
1.1671359
1.1672943
1.1674375
1.1675649
1.1676753
1.1677678
1.1678409
1.1678939
1.1679258
1.1679319
1.1679035
1.1678446
1.1677783
1.167666
1.1673935
1.1671864
1.1674058
1.0500467
1.084339
1.0647525
1.0788508
1.0720815
1.078864
1.0777582
1.0814201
1.0828337
1.0854122
1.0877105
1.0902202
1.0927942
1.0954602
1.0982045
1.1010211
1.1039008
1.1068338
1.1098088
1.1128132
1.1158335
1.1188553
1.1218631
1.1248415
1.1277745
1.1306465
1.1334424
1.1361478
1.1387499
1.1412373
1.1436006
1.1458324
1.1479274
1.1498827
1.1516974
1.1533726
1.1549111
1.1563173
1.1575968
1.1587562
1.1598029
1.1607446
1.1615894
1.1623453
1.1630204
1.1636223
1.1641585
1.1646359
1.1650611
1.1654401
1.1657785
1.1660812
1.1663527
1.166597
1.1668177
1.1670178
1.1671999
1.1673662
1.1675186
1.1676584
1.167787
1.1679051
1.1680133
1.1681117
1.1682004
1.1682787
1.1683459
1.1684006
1.1684414
1.1684668
1.168476
1.1684678
1.1684363
1.1683737
1.1682875
1.1681957
1.1680431
1.1677301
1.1675469
1.1678283
1.051309
1.0858857
1.0661906
1.080637
1.0741786
1.0811172
1.0804307
1.08424
1.0860736
1.0889009
1.0915457
1.0943714
1.0972746
1.100268
1.1033375
1.1064731
1.1096617
1.1128894
1.1161406
1.1193986
1.1226456
1.1258632
1.1290326
1.1321352
1.1351526
1.1380678
1.1408648
1.1435301
1.1460521
1.1484218
1.1506331
1.1526825
1.154569
1.1562944
1.1578623
1.1592785
1.1605498
1.1616847
1.162692
1.1635814
1.1643627
1.1650455
1.1656395
1.1661538
1.1665974
1.1669784
1.1673045
1.1675828
1.1678197
1.168021
1.1681919
1.1683371
1.1684607
1.1685661
1.1686565
1.1687345
1.1688022
1.1688613
1.1689134
1.1689594
1.1690002
1.1690362
1.1690677
1.1690946
1.1691166
1.1691329
1.1691425
1.169144
1.1691356
1.1691156
1.1690833
1.1690366
1.168969
1.1688752
1.1687657
1.1686484
1.1684526
1.1681105
1.1679659
1.1682921
1.0531683
1.0880185
1.0682798
1.0831743
1.0769748
1.0841763
1.0839678
1.0879831
1.0902844
1.0934201
1.09646
1.0996576
1.1029393
1.1063055
1.1097389
1.113224
1.1167426
1.1202754
1.1238014
1.1272989
1.1307454
1.1341184
1.1373957
1.1405564
1.1435812
1.1464532
1.1491584
1.151686
1.1540286
1.1561824
1.1581466
1.1599236
1.1615186
1.1629387
1.1641929
1.1652917
1.1662461
1.167068
1.1677691
1.1683613
1.1688561
1.1692644
1.1695967
1.1698625
1.1700708
1.1702298
1.170347
1.1704289
1.1704817
1.1705104
1.1705198
1.1705139
1.1704961
1.1704694
1.1704363
1.1703989
1.1703587
1.1703171
1.1702749
1.170233
1.1701915
1.1701508
1.1701105
1.1700705
1.1700302
1.1699885
1.1699445
1.1698962
1.1698419
1.1697799
1.1697091
1.1696264
1.1695254
1.1694044
1.1692763
1.1691335
1.1688932
1.1685372
1.168446
1.1687961
1.0556824
1.0907845
1.0711399
1.0864696
1.0806481
1.0881215
1.0885153
1.0927711
1.095617
1.0991392
1.1026351
1.1062678
1.1099808
1.1137634
1.1175926
1.1214462
1.1252994
1.1291263
1.1328996
1.136592
1.1401762
1.1436265
1.146919
1.1500329
1.1529509
1.1556601
1.1581517
1.1604215
1.1624693
1.1642987
1.1659167
1.1673327
1.1685583
1.1696066
1.1704916
1.1712276
1.1718292
1.1723107
1.1726856
1.172967
1.1731671
1.1732972
1.1733675
1.1733876
1.1733658
1.1733097
1.173226
1.1731206
1.1729988
1.1728649
1.1727228
1.1725757
1.1724265
1.1722773
1.1721301
1.1719862
1.1718467
1.1717125
1.1715839
1.1714613
1.1713446
1.1712335
1.1711277
1.1710265
1.1709291
1.1708346
1.1707414
1.1706479
1.170552
1.1704521
1.1703466
1.1702313
1.1701003
1.169957
1.1698147
1.1696474
1.1693633
1.1690091
1.1689869
1.1693352
1.0589186
1.0942152
1.0749354
1.0906348
1.085399
1.093109
1.0942415
1.0988192
1.1022895
1.1062893
1.1103071
1.1144356
1.1186254
1.1228549
1.1270933
1.1313098
1.1354712
1.1395436
1.1434934
1.147288
1.1508977
1.1542966
1.1574636
1.1603826
1.1630438
1.1654426
1.1675799
1.1694611
1.1710959
1.1724968
1.1736789
1.1746588
1.1754539
1.1760822
1.1765613
1.1769083
1.1771396
1.1772705
1.1773152
1.1772867
1.1771971
1.1770568
1.1768755
1.1766616
1.1764227
1.1761651
1.1758946
1.175616
1.1753335
1.1750507
1.1747704
1.174495
1.1742266
1.1739667
1.1737165
1.1734767
1.1732479
1.1730305
1.1728244
1.1726294
1.1724452
1.1722712
1.1721067
1.1719508
1.1718026
1.1716608
1.171524
1.1713902
1.1712576
1.1711245
1.1709887
1.1708447
1.1706884
1.170528
1.170375
1.1701854
1.1698626
1.169519
1.1695788
1.1699054
1.062959
1.0983987
1.0797537
1.0958318
1.0913754
1.0993907
1.1014169
1.106412
1.1105857
1.115152
1.1197508
1.1244223
1.1291155
1.1337958
1.1384213
1.1429497
1.1473385
1.1515464
1.1555356
1.1592735
1.1627338
1.1658972
1.1687522
1.1712946
1.1735269
1.1754575
1.1770999
1.1784709
1.1795901
1.180479
1.1811593
1.1816533
1.1819824
1.1821674
1.1822275
1.1821809
1.182044
1.1818319
1.181558
1.1812343
1.1808715
1.180479
1.1800649
1.1796363
1.1791993
1.1787591
1.1783201
1.1778861
1.17746
1.1770444
1.1766414
1.1762524
1.1758786
1.1755209
1.1751799
1.1748557
1.1745485
1.1742579
1.1739838
1.1737254
1.1734821
1.173253
1.1730372
1.1728335
1.172641
1.1724581
1.1722833
1.1721148
1.1719508
1.1717897
1.1716281
1.1714603
1.1712842
1.1711117
1.1709502
1.1707414
1.1703927
1.1700653
1.1702026
1.1705124
1.0679899
1.103791
1.0858488
1.1023894
1.0989302
1.1073018
1.11037
1.1158846
1.120829
1.1260417
1.1312672
1.1365036
1.1416883
1.1467694
1.1516913
1.1564008
1.1608491
1.1649945
1.1688038
1.1722539
1.1753318
1.1780343
1.1803667
1.1823419
1.1839787
1.1853001
1.1863318
1.1871012
1.187636
1.1879636
1.1881103
1.1881008
1.1879582
1.1877034
1.1873555
1.1869316
1.1864469
1.1859148
1.1853469
1.1847536
1.1841435
1.1835243
1.1829025
1.1822834
1.1816716
1.181071
1.1804846
1.1799149
1.1793639
1.1788332
1.1783239
1.1778366
1.1773719
1.17693
1.1765108
1.176114
1.1757393
1.175386
1.1750534
1.1747406
1.1744467
1.1741705
1.1739109
1.1736666
1.1734364
1.1732187
1.173012
1.1728144
1.1726245
1.1724403
1.1722578
1.1720714
1.1718818
1.1717023
1.1715329
1.1713083
1.1709527
1.1706537
1.1708502
1.1711454
1.0743054
1.110627
1.0934211
1.1106552
1.1084236
1.1171908
1.1214555
1.1276165
1.1333961
1.1393168
1.1451777
1.1509371
1.1565144
1.1618409
1.1668519
1.1714933
1.1757231
1.1795132
1.1828496
1.1857311
1.1881679
1.1901796
1.1917926
1.1930383
1.1939508
1.1945654
1.1949171
1.1950398
1.1949654
1.1947238
1.1943418
1.193844
1.1932521
1.1925855
1.1918609
1.1910931
1.190295
1.1894772
1.1886494
1.1878192
1.1869935
1.1861778
1.1853767
1.184594
1.1838327
1.1830952
1.1823834
1.1816986
1.1810419
1.1804138
1.1798147
1.1792445
1.1787032
1.1781903
1.1777053
1.1772474
1.176816
1.1764099
1.1760283
1.17567
1.1753337
1.1750182
1.1747222
1.1744442
1.1741828
1.1739365
1.1737037
1.1734827
1.1732723
1.1730701
1.1728715
1.172672
1.1724753
1.1722937
1.1721174
1.1718777
1.1715283
1.1712826
1.171528
1.1717791
1.082179
1.1191711
1.1029465
1.1208975
1.1202743
1.1295235
1.1351467
1.1420983
1.1487424
1.1553528
1.1617447
1.1678418
1.1735529
1.1788072
1.1835507
1.1877493
1.1913886
1.1944715
1.1970159
1.1990514
1.2006157
1.2017517
1.2025046
1.2029201
1.2030426
1.202914
1.202573
1.2020552
1.2013921
1.2006118
1.199739
1.1987953
1.1977991
1.1967665
1.1957109
1.1946439
1.1935753
1.192513
1.1914639
1.1904334
1.1894262
1.1884457
1.1874948
1.1865758
1.1856902
1.1848392
1.1840236
1.1832437
1.1824996
1.1817912
1.181118
1.1804795
1.179875
1.1793037
1.1787645
1.1782564
1.1777783
1.1773289
1.1769071
1.1765115
1.1761406
1.1757931
1.1754674
1.1751623
1.1748759
1.1746069
1.1743536
1.1741147
1.1738888
1.1736731
1.1734632
1.1732563
1.1730583
1.1728786
1.1726977
1.1724476
1.1721138
1.1719318
1.1722188
1.1724084
1.0918172
1.1297228
1.1151888
1.1337224
1.1351733
1.1450226
1.1520862
1.1598851
1.1672754
1.1743564
1.1809522
1.1869774
1.1923588
1.1970559
1.2010546
1.2043657
1.2070193
1.2090599
1.2105415
1.2115229
1.2120646
1.2122259
1.2120626
1.2116269
1.2109654
1.2101201
1.2091278
1.2080205
1.2068257
1.2055671
1.2042648
1.2029357
1.2015939
1.2002514
1.1989179
1.1976016
1.1963088
1.195045
1.1938144
1.1926203
1.1914651
1.1903508
1.1892785
1.1882492
1.1872632
1.1863206
1.1854212
1.1845646
1.18375
1.1829768
1.182244
1.1815505
1.1808951
1.1802766
1.1796938
1.1791452
1.1786295
1.1781453
1.1776912
1.1772657
1.1768672
1.1764943
1.1761453
1.1758189
1.1755133
1.1752269
1.1749583
1.1747063
1.1744694
1.1742446
1.1740279
1.1738186
1.1736239
1.1734485
1.1732654
1.1730131
1.1727067
1.1725869
1.1728943
1.1730167
1.1040246
1.143187
1.1309408
1.150109
1.1540648
1.1645385
1.1728742
1.1813052
1.1890239
1.1960418
1.2022314
1.2075488
1.2119819
1.2155548
1.2183168
1.2203353
1.2216878
1.2224557
1.22272
1.2225575
1.2220392
1.2212289
1.220183
1.2189507
1.2175742
1.2160895
1.214527
1.2129122
1.2112662
1.2096068
1.2079483
1.2063025
1.2046791
1.2030858
1.2015286
1.2000125
1.1985411
1.1971171
1.1957427
1.1944191
1.1931472
1.1919273
1.1907594
1.1896432
1.1885782
1.1875635
1.1865981
1.1856811
1.184811
1.1839868
1.1832068
1.1824698
1.1817742
1.1811185
1.1805012
1.1799206
1.1793753
1.1788637
1.1783843
1.1779353
1.1775154
1.1771228
1.176756
1.1764134
1.1760935
1.1757945
1.1755153
1.1752546
1.1750105
1.1747802
1.1745607
1.1743533
1.174165
1.1739952
1.1738122
1.1735665
1.1732969
1.1732298
1.1735314
1.1736008
1.1202711
1.1606784
1.1515413
1.1710584
1.177785
1.1886671
1.1976476
1.2060229
1.2132557
1.2193673
1.224338
1.228218
1.2310859
1.2330441
1.2342047
1.2346812
1.2345825
1.2340088
1.2330497
1.2317834
1.2302774
1.2285888
1.2267652
1.2248465
1.2228655
1.2208491
1.218819
1.216793
1.2147853
1.2128073
1.2108678
1.2089738
1.2071308
1.2053428
1.2036127
1.2019425
1.2003336
1.1987866
1.1973018
1.195879
1.1945175
1.1932167
1.1919755
1.1907927
1.1896669
1.1885967
1.1875805
1.1866168
1.1857039
1.1848401
1.1840237
1.1832529
1.1825261
1.1818415
1.1811973
1.1805919
1.1800237
1.1794908
1.1789918
1.1785249
1.1780886
1.1776812
1.1773011
1.1769468
1.1766166
1.1763091
1.1760231
1.1757571
1.1755092
1.1752767
1.1750578
1.1748553
1.1746748
1.1745108
1.1743304
1.1740983
1.1738704
1.1738481
1.1741319
1.1741594
1.1422103
1.1834246
1.1783031
1.1974218
1.2064363
1.2170385
1.2255202
1.2326832
1.2383356
1.2425893
1.2455588
1.2474027
1.2482845
1.2483647
1.2477908
1.2466939
1.245187
1.2433656
1.2413092
1.2390832
1.2367405
1.2343242
1.2318686
1.229401
1.2269432
1.2245122
1.2221212
1.2197804
1.2174977
1.2152788
1.213128
1.2110481
1.209041
1.2071078
1.205249
1.2034643
1.2017532
1.2001148
1.1985479
1.1970512
1.1956231
1.1942619
1.1929658
1.191733
1.1905616
1.1894495
1.188395
1.187396
1.1864505
1.1855566
1.1847123
1.1839157
1.183165
1.1824581
1.1817934
1.181169
1.1805831
1.1800341
1.1795202
1.1790398
1.1785911
1.1781728
1.177783
1.1774204
1.1770833
1.1767705
1.1764806
1.1762121
1.1759631
1.175731
1.1755154
1.1753198
1.1751474
1.174989
1.1748142
1.1746027
1.1744197
1.1744335
1.1746836
1.1746588
1.1724369
1.2120165
1.2121143
1.2298301
1.2387611
1.2476811
1.2542573
1.2590196
1.2620863
1.263737
1.2642123
1.263747
1.2625434
1.2607741
1.2585812
1.25608
1.2533628
1.2505027
1.2475569
1.24457
1.2415766
1.2386032
1.2356701
1.2327925
1.2299817
1.2272462
1.2245918
1.2220226
1.2195411
1.2171486
1.2148458
1.2126324
1.2105077
1.2084706
1.2065194
1.2046525
1.202868
1.2011638
1.1995377
1.1979875
1.1965109
1.1951057
1.1937694
1.1924999
1.1912947
1.1901517
1.1890685
1.1880431
1.1870731
1.1861564
1.185291
1.1844748
1.1837058
1.182982
1.1823015
1.1816625
1.1810632
1.1805018
1.1799766
1.179486
1.1790282
1.1786017
1.1782051
1.1778367
1.1774951
1.1771791
1.1768873
1.1766183
1.1763698
1.1761402
1.1759298
1.1757416
1.1755765
1.1754232
1.1752571
1.1750712
1.1749312
1.1749656
1.1751698
1.1751172
1.2134707
1.2480497
1.251012
1.2650103
1.2725543
1.2781365
1.2812514
1.2825845
1.2824505
1.2812186
1.2791649
1.2765184
1.2734559
1.2701143
1.2665978
1.262985
1.2593348
1.2556913
1.2520866
1.2485444
1.2450817
1.2417106
1.2384393
1.235273
1.2322151
1.2292672
1.2264294
1.2237014
1.2210818
1.2185688
1.2161603
1.2138539
1.211647
1.2095369
1.2075208
1.2055958
1.203759
1.2020077
1.2003389
1.1987499
1.197238
1.1958003
1.1944342
1.1931371
1.1919065
1.1907399
1.1896348
1.1885888
1.1875997
1.1866652
1.1857831
1.1849513
1.1841677
1.1834302
1.182737
1.1820862
1.181476
1.1809046
1.1803703
1.1798714
1.1794063
1.1789735
1.1785714
1.1781986
1.1778538
1.1775357
1.177243
1.1769742
1.1767274
1.1765014
1.1762967
1.1761155
1.1759566
1.1758089
1.1756546
1.175496
1.1753913
1.1754314
1.1755854
1.1755158
1.2627112
1.2888903
1.2931548
1.3008414
1.3037283
1.3046036
1.3035447
1.3012342
1.2980278
1.2942348
1.2900693
1.2856895
1.2812076
1.2767033
1.2722327
1.267835
1.2635367
1.2593557
1.2553034
1.2513868
1.2476094
1.2439723
1.2404752
1.2371164
1.2338934
1.2308031
1.2278421
1.2250067
1.2222932
1.2196976
1.2172161
1.2148448
1.2125799
1.2104177
1.2083546
1.206387
1.2045115
1.2027247
1.2010233
1.1994043
1.1978644
1.1964008
1.1950106
1.1936909
1.1924391
1.1912526
1.1901287
1.1890651
1.1880593
1.187109
1.186212
1.1853662
1.1845693
1.1838195
1.1831147
1.182453
1.1818327
1.181252
1.1807092
1.1802026
1.1797307
1.179292
1.1788848
1.178508
1.1781601
1.17784
1.1775463
1.1772776
1.1770325
1.17681
1.1766105
1.176435
1.1762809
1.1761396
1.1760003
1.1758694
1.1757899
1.1758173
1.1759159
1.175857
1.3175204
1.3292407
1.3306821
1.3307784
1.3281276
1.3242322
1.319406
1.314083
1.3084998
1.3028285
1.2971778
1.2916189
1.2861964
1.2809376
1.2758581
1.2709657
1.2662631
1.2617496
1.257422
1.2532759
1.2493061
1.2455068
1.2418719
1.2383954
1.2350711
1.2318932
1.228856
1.2259538
1.2231813
1.2205335
1.2180053
1.2155921
1.2132893
1.2110927
1.2089981
1.2070016
1.2050994
1.2032878
1.2015634
1.1999227
1.1983626
1.1968799
1.1954717
1.194135
1.192867
1.1916651
1.1905267
1.1894492
1.1884302
1.1874674
1.1865585
1.1857014
1.1848939
1.1841339
1.1834196
1.182749
1.1821204
1.1815321
1.1809823
1.1804694
1.1799919
1.1795483
1.1791371
1.1787569
1.1784066
1.1780848
1.1777903
1.1775218
1.1772781
1.1770585
1.176863
1.1766913
1.176541
1.1764062
1.1762824
1.1761759
1.1761122
1.1761192
1.1761702
1.1761299
1.3675568
1.3618055
1.3574344
1.3514597
1.3442582
1.3368369
1.3293674
1.3220339
1.3149195
1.3080698
1.3015047
1.2952291
1.28924
1.2835291
1.2780858
1.2728984
1.2679547
1.2632426
1.2587504
1.254467
1.2503819
1.246485
1.2427671
1.2392195
1.2358341
1.2326032
1.2295197
1.2265769
1.2237686
1.2210889
1.2185322
1.2160934
1.2137675
1.2115498
1.2094359
1.2074217
1.205503
1.2036762
1.2019375
1.2002835
1.1987108
1.1972163
1.1957968
1.1944494
1.1931713
1.1919597
1.1908121
1.1897258
1.1886984
1.1877275
1.1868109
1.1859464
1.1851318
1.1843652
1.1836445
1.1829679
1.1823337
1.1817401
1.1811854
1.180668
1.1801865
1.1797393
1.1793251
1.1789424
1.1785901
1.1782668
1.1779713
1.1777025
1.1774593
1.1772412
1.1770477
1.1768777
1.1767293
1.1765999
1.1764887
1.1764005
1.1763455
1.17633
1.1763449
1.1763253
1.3946013
1.3832836
1.372475
1.3630204
1.3536929
1.344694
1.3360984
1.3279234
1.3201697
1.3128211
1.305858
1.2992578
1.2929983
1.2870576
1.2814156
1.2760533
1.2709532
1.2660993
1.2614772
1.2570732
1.2528753
1.2488721
1.2450534
1.2414096
1.237932
1.2346126
1.2314437
1.2284184
1.2255304
1.2227734
1.2201418
1.2176302
1.2152338
1.2129477
1.2107674
1.2086887
1.2067076
1.2048202
1.2030228
1.2013121
1.1996845
1.1981369
1.1966662
1.1952694
1.1939437
1.1926863
1.1914946
1.190366
1.1892981
1.1882884
1.1873348
1.1864349
1.1855866
1.1847879
1.1840368
1.1833315
1.18267
1.1820508
1.1814722
1.1809324
1.1804301
1.1799637
1.1795318
1.1791331
1.1787662
1.1784299
1.1781228
1.1778439
1.1775923
1.1773671
1.1771677
1.1769931
1.1768417
1.1767122
1.1766047
1.1765218
1.1764676
1.176444
1.1764418
1.1764338
1.1642981
1.1704536
1.1832353
1.1945244
1.1986265
1.1984776
1.1994609
1.1998355
1.1999811
1.1999072
1.1996016
1.1991642
1.1985927
1.1979522
1.1972717
1.1965615
1.1958201
1.1950522
1.1942623
1.1934539
1.1926302
1.1917942
1.1909484
1.1900951
1.1892366
1.1883747
1.1875115
1.1866487
1.185788
1.184931
1.1840793
1.1832344
1.1823977
1.1815708
1.1807549
1.1799513
1.1791615
1.1783867
1.1776281
1.1768871
1.1761649
1.1754627
1.1747817
1.1741231
1.1734881
1.1728778
1.1722932
1.1717354
1.1712053
1.1707038
1.1702316
1.1697895
1.1693779
1.1689972
1.1686476
1.1683291
1.1680416
1.1677847
1.1675581
1.1673607
1.1671912
1.1670483
1.1669302
1.1668349
1.1667602
1.1667029
1.1666608
1.1666281
1.1666078
1.1665823
1.1665799
1.1665279
1.166558
1.1664161
1.1665374
1.1661632
1.1665112
1.1657336
1.1664432
1.1651254
1.1676692
1.1758697
1.1919547
1.1970528
1.1971425
1.1966701
1.195948
1.1955807
1.1951563
1.1946883
1.1941874
1.1937212
1.1932537
1.1927834
1.1922888
1.1917702
1.1912272
1.1906612
1.1900726
1.1894625
1.1888319
1.1881825
1.1875158
1.1868337
1.1861381
1.185431
1.1847143
1.18399
1.1832601
1.1825267
1.1817914
1.1810564
1.1803234
1.1795942
1.1788707
1.1781545
1.1774473
1.1767509
1.1760668
1.1753968
1.1747423
1.1741049
1.1734861
1.1728873
1.1723099
1.1717553
1.1712248
1.1707194
1.1702403
1.1697886
1.1693651
1.1689704
1.1686052
1.1682698
1.1679645
1.1676893
1.167444
1.1672283
1.1670416
1.1668829
1.1667509
1.1666439
1.1665603
1.1664981
1.1664548
1.1664272
1.166413
1.1664066
1.1664104
1.1664085
1.1664253
1.1663962
1.1664383
1.1663191
1.1664431
1.1660985
1.1664435
1.1656888
1.1664098
1.1650779
1.1585129
1.1741566
1.1861809
1.1908632
1.1907044
1.1901869
1.1895797
1.1893771
1.1890717
1.1888744
1.1886117
1.1883609
1.1880606
1.187745
1.1873989
1.1870317
1.1866398
1.186225
1.1857874
1.1853281
1.184848
1.1843482
1.18383
1.1832946
1.1827435
1.1821782
1.1816
1.1810106
1.1804117
1.179805
1.1791921
1.1785749
1.1779552
1.1773348
1.1767155
1.1760992
1.1754877
1.174883
1.1742867
1.1737008
1.173127
1.1725671
1.1720228
1.1714957
1.1709875
1.1704996
1.1700335
1.1695906
1.1691721
1.1687791
1.1684127
1.1680735
1.1677621
1.1674791
1.1672247
1.166999
1.1668016
1.1666324
1.1664905
1.166375
1.1662845
1.1662173
1.1661717
1.1661455
1.1661362
1.1661408
1.1661566
1.1661785
1.166208
1.166231
1.1662685
1.1662626
1.1663185
1.1662211
1.16635
1.1660339
1.1663752
1.1656441
1.1663763
1.1650305
1.1574749
1.177103
1.184686
1.1880502
1.1868922
1.1865066
1.185778
1.185526
1.1850775
1.1847767
1.1843994
1.1840887
1.1837528
1.1834366
1.1831074
1.1827764
1.1824355
1.1820861
1.1817262
1.1813547
1.180971
1.1805746
1.1801653
1.1797428
1.1793076
1.1788599
1.1784005
1.1779299
1.1774493
1.1769597
1.1764624
1.1759586
1.1754499
1.1749379
1.1744241
1.1739102
1.1733981
1.1728896
1.1723864
1.1718904
1.1714035
1.1709276
1.1704643
1.1700156
1.169583
1.1691683
1.1687731
1.1683988
1.1680467
1.1677182
1.1674141
1.1671354
1.1668828
1.1666566
1.1664573
1.1662848
1.1661389
1.1660192
1.1659251
1.1658554
1.1658087
1.1657832
1.1657773
1.1657886
1.1658147
1.1658524
1.1658991
1.1659499
1.1660057
1.1660538
1.1661127
1.1661297
1.1662001
1.1661229
1.1662593
1.1659685
1.1663101
1.1655996
1.1663437
1.1649866
1.1551794
1.17514
1.1805796
1.1832559
1.1816237
1.1814926
1.1807292
1.1806024
1.1801668
1.1799647
1.1796499
1.1794262
1.1791591
1.1789208
1.1786667
1.1784165
1.1781588
1.1778964
1.1776265
1.1773482
1.1770608
1.1767636
1.176456
1.1761377
1.1758086
1.1754688
1.1751185
1.1747579
1.1743877
1.1740085
1.1736211
1.1732265
1.1728259
1.1724204
1.1720115
1.1716006
1.1711893
1.1707792
1.1703722
1.1699699
1.1695742
1.1691869
1.1688098
1.1684447
1.1680934
1.1677575
1.1674388
1.1671387
1.1668587
1.1666
1.1663637
1.1661506
1.1659615
1.1657969
1.1656569
1.1655418
1.1654512
1.1653847
1.1653415
1.1653205
1.1653202
1.1653389
1.1653746
1.1654253
1.1654884
1.1655606
1.1656393
1.1657199
1.1658028
1.1658765
1.1659574
1.1659974
1.1660831
1.1660259
1.1661705
1.1659036
1.1662467
1.165556
1.1663119
1.1649451
1.1499019
1.1721201
1.175877
1.1783032
1.1763857
1.1766096
1.175818
1.175841
1.1754262
1.1753162
1.1750439
1.1748938
1.174686
1.1745204
1.1743355
1.174159
1.173976
1.1737914
1.1736014
1.1734057
1.1732035
1.1729941
1.1727768
1.1725513
1.1723172
1.1720743
1.1718226
1.1715621
1.1712929
1.1710155
1.1707304
1.1704383
1.1701399
1.1698362
1.1695284
1.1692177
1.1689054
1.168593
1.168282
1.1679742
1.1676711
1.1673744
1.167086
1.1668076
1.1665408
1.1662875
1.1660491
1.1658273
1.1656233
1.1654385
1.165274
1.1651304
1.1650087
1.1649092
1.1648322
1.1647777
1.1647455
1.164735
1.1647453
1.1647755
1.1648237
1.1648883
1.1649674
1.1650589
1.16516
1.1652677
1.1653792
1.1654902
1.1656007
1.1657004
1.1658036
1.1658664
1.1659679
1.1659303
1.1660837
1.1658398
1.1661852
1.1655138
1.1662803
1.1649062
1.1445695
1.1695124
1.1710664
1.1734178
1.1712797
1.1717926
1.1709563
1.1711243
1.1707303
1.1707252
1.1705088
1.170443
1.1703017
1.1702115
1.170096
1.1699916
1.1698798
1.1697683
1.1696532
1.1695341
1.1694104
1.1692815
1.1691467
1.1690056
1.1688577
1.1687027
1.1685405
1.1683709
1.1681941
1.1680102
1.1678195
1.1676226
1.16742
1.1672125
1.1670009
1.1667863
1.1665699
1.1663527
1.1661363
1.165922
1.1657113
1.1655059
1.1653072
1.1651171
1.1649369
1.1647685
1.1646132
1.1644726
1.1643478
1.1642402
1.1641506
1.16408
1.1640289
1.1639977
1.1639867
1.1639958
1.1640247
1.1640727
1.164139
1.1642223
1.1643209
1.1644332