/*--------------------------------*- C++ -*----------------------------------*\
| =========                 |                                                 |
| \\      /  F ield         | OpenFOAM: The Open Source CFD Toolbox           |
|  \\    /   O peration     | Version:  2512                                  |
|   \\  /    A nd           | Website:  www.openfoam.com                      |
|    \\/     M anipulation  |                                                 |
\*---------------------------------------------------------------------------*/
FoamFile
{
    version     2.0;
    format      ascii;
    arch        "LSB;label=32;scalar=64";
    class       volScalarField;
    location    "0.141";
    object      T;
}
// * * * * * * * * * * * * * * * * * * * * * * * * * * * * * * * * * * * * * //

dimensions      [0 0 0 1 0 0 0];

internalField   nonuniform List<scalar> 
16000
(
292.69529
284.89952
289.28819
287.00489
288.67126
287.91684
288.58335
288.38287
288.68572
288.69674
288.86164
288.94845
289.07298
289.1834
289.30195
289.4207
289.54276
289.66746
289.79526
289.92621
290.06046
290.19808
290.33914
290.48365
290.6316
290.78297
290.93768
291.09563
291.25669
291.42069
291.58744
291.75671
291.92823
292.10171
292.27684
292.45326
292.63061
292.80849
292.98651
293.16423
293.34124
293.5171
293.6914
293.86371
294.03364
294.2008
294.36484
294.52542
294.68224
294.83504
294.9836
295.12772
295.26726
295.4021
295.53218
295.65747
295.77799
295.89377
296.0049
296.1115
296.21376
296.31189
296.40613
296.49682
296.58436
296.66917
296.75171
296.83236
296.91151
296.98962
297.06739
297.14572
297.22541
297.3067
297.38948
297.47393
297.5669
297.64205
297.78423
297.82064
292.38072
284.48097
289.03964
286.62001
288.37967
287.56125
288.28588
288.0598
288.38567
288.39863
288.57043
288.66669
288.79698
288.9165
289.04261
289.17005
289.30069
289.43437
289.57133
289.7117
289.85559
290.00306
290.15414
290.30882
290.46708
290.62885
290.79401
290.96243
291.13393
291.30831
291.48531
291.66466
291.84604
292.02912
292.21351
292.39884
292.58467
292.77058
292.95612
293.14084
293.32428
293.50599
293.68554
293.86251
294.03649
294.20711
294.37404
294.53697
294.69562
294.84978
294.99924
295.14388
295.28359
295.4183
295.54799
295.67269
295.79244
295.90734
296.0175
296.12307
296.22427
296.32133
296.41452
296.50417
296.5907
296.67454
296.75617
296.836
296.91442
296.99189
297.06908
297.1469
297.22621
297.30735
297.39023
297.47554
297.56436
297.65556
297.76784
297.84277
292.05264
284.10005
288.73836
286.2968
288.08382
287.26827
287.99389
287.78603
288.109
288.13888
288.31282
288.4213
288.55856
288.68807
288.82338
288.9607
289.10144
289.24552
289.39317
289.54448
289.69953
289.85836
290.02097
290.18731
290.35731
290.53085
290.70778
290.88791
291.071
291.25679
291.44497
291.63519
291.82709
292.02026
292.21425
292.40863
292.60291
292.79661
292.98924
293.18032
293.36935
293.55589
293.73947
293.9197
294.09618
294.26856
294.43655
294.59987
294.75832
294.91171
295.05993
295.20288
295.34054
295.4729
295.6
295.72193
295.8388
295.95073
296.05791
296.16052
296.2588
296.35301
296.44346
296.53048
296.6145
296.69598
296.7754
296.85318
296.92973
297.00548
297.08107
297.1574
297.23537
297.31538
297.39733
297.48153
297.56934
297.66303
297.76652
297.85321
291.75898
283.75094
288.49142
286.00849
287.83417
287.00278
287.74101
287.5437
287.86978
287.91476
288.09286
288.21408
288.35943
288.49987
288.64538
288.79359
288.9454
289.10083
289.26007
289.42317
289.59019
289.76112
289.93594
290.11455
290.29683
290.48261
290.6717
290.86382
291.05869
291.25598
291.45529
291.65623
291.85833
292.06113
292.26413
292.4668
292.66862
292.86905
293.06757
293.26366
293.45683
293.64661
293.83257
294.0143
294.19147
294.36376
294.53093
294.69277
294.84913
294.99991
295.14506
295.28457
295.41848
295.54685
295.6698
295.78748
295.90004
296.00769
296.11063
296.2091
296.30337
296.39372
296.48047
296.56398
296.64467
296.72302
296.7995
296.87457
296.94862
297.02209
297.09557
297.16992
297.2461
297.32463
297.40531
297.48808
297.57496
297.66991
297.76579
297.86486
291.48872
283.43643
288.2576
285.74866
287.63088
286.78006
287.52199
287.34405
287.66909
287.7334
287.91572
288.05134
288.20628
288.35885
288.51598
288.6763
288.8404
289.00838
289.18034
289.35636
289.53644
289.72054
289.90858
290.10044
290.29591
290.49479
290.69677
290.90153
291.1087
291.31785
291.52851
291.74018
291.95234
292.16442
292.37585
292.58605
292.79443
293.00043
293.20347
293.40304
293.59864
293.78982
293.97618
294.15736
294.33306
294.50307
294.66718
294.8253
294.97734
295.12331
295.26323
295.39719
295.52531
295.64773
295.76465
295.87628
295.98283
296.08457
296.18174
296.27463
296.36352
296.44874
296.5306
296.60948
296.6858
296.76003
296.83267
296.90417
296.97494
297.04538
297.11604
297.18775
297.26151
297.3379
297.41663
297.49744
297.58308
297.6767
297.76908
297.87267
291.24853
283.16681
288.05857
285.53371
287.42357
286.60466
287.35247
287.19185
287.51662
287.60049
287.78804
287.93877
288.10456
288.27003
288.43977
288.61311
288.79049
288.97199
289.15771
289.34768
289.54186
289.74015
289.94241
290.14844
290.35795
290.57064
290.78613
291.00397
291.22369
291.44477
291.66663
291.88868
292.11029
292.33082
292.54961
292.76604
292.97947
293.18931
293.39497
293.59596
293.79179
293.98206
294.16642
294.3446
294.51638
294.68162
294.84025
294.99225
295.13766
295.27658
295.40913
295.5355
295.65589
295.77055
295.87973
295.9837
296.08275
296.17718
296.26729
296.35339
296.43579
296.51483
296.59083
296.66418
296.7353
296.80464
296.8727
296.93994
297.00677
297.07358
297.14086
297.20941
297.28022
297.35398
297.43027
297.50876
297.59271
297.68434
297.77315
297.88034
291.04021
282.94183
287.89381
285.36642
287.26967
286.48103
287.21947
287.09284
287.40885
287.51935
287.71315
287.8793
288.0571
288.2363
288.41986
288.6075
288.79952
288.996
289.19696
289.40236
289.61209
289.82596
290.04374
290.26509
290.48966
290.717
290.94661
291.17794
291.41037
291.64327
291.87595
292.1077
292.3378
292.56553
292.79018
293.01107
293.22754
293.43899
293.64488
293.84473
294.03812
294.22474
294.40432
294.5767
294.74179
294.89955
295.05005
295.19338
295.32972
295.45926
295.58225
295.69897
295.80972
295.91482
296.01459
296.10936
296.19949
296.28529
296.36712
296.4453
296.52017
296.59206
296.66132
296.72831
296.79344
296.85717
296.91997
296.98231
297.0446
297.1072
297.17056
297.2354
297.30277
297.37336
297.4467
297.5225
297.60418
297.69286
297.77846
297.88733
290.86383
282.76167
287.76262
285.23568
287.14418
286.38229
287.12672
287.01473
287.35789
287.48833
287.69002
287.87266
288.06465
288.25949
288.45898
288.66303
288.87181
289.08531
289.30349
289.52619
289.7532
289.98423
290.21891
290.4568
290.69737
290.94005
291.18419
291.42909
291.674
291.91815
292.16072
292.40091
292.63792
292.87094
293.09925
293.32213
293.53894
293.74913
293.9522
294.14778
294.33554
294.5153
294.68692
294.85039
295.00575
295.15314
295.29274
295.42481
295.54963
295.66753
295.77887
295.88402
295.98336
296.07728
296.16617
296.25042
296.33039
296.40646
296.47899
296.54833
296.61481
296.67877
296.74056
296.80052
296.85905
296.91658
296.97357
297.03048
297.08772
297.14563
297.20461
297.26532
297.32879
297.39574
297.46569
297.53851
297.61742
297.70238
297.78456
297.89444
290.71172
282.62259
287.66663
285.14328
287.07796
286.37651
287.10341
287.03456
287.34826
287.50691
287.72076
287.92261
288.13208
288.34533
288.5635
288.78653
289.01453
289.24739
289.48496
289.72699
289.97312
290.22291
290.47584
290.7313
290.9886
291.24699
291.50564
291.76371
292.02028
292.27444
292.52527
292.77188
293.01339
293.24898
293.47791
293.69951
293.9132
294.11852
294.3151
294.50268
294.68113
294.85041
295.01058
295.16179
295.30426
295.4383
295.56425
295.68251
295.79349
295.89764
295.99541
296.08726
296.17365
296.255
296.33177
296.40437
296.4732
296.53864
296.60107
296.66083
296.71826
296.7737
296.82746
296.87987
296.93132
296.98219
297.03294
297.084
297.13578
297.1886
297.24282
297.29903
297.3582
297.42107
297.48727
297.55685
297.6325
297.71298
297.79161
297.90178
290.5833
282.52637
287.61063
285.11184
287.06148
286.36393
287.08877
287.07073
287.39932
287.5862
287.81562
288.03865
288.26843
288.5027
288.74221
288.98685
289.2366
289.49123
289.75044
290.0138
290.28079
290.55076
290.82301
291.09671
291.37097
291.64483
291.91728
292.1873
292.45382
292.71581
292.97226
293.22221
293.46478
293.69918
293.92473
294.14085
294.34711
294.5432
294.72895
294.90432
295.06937
295.22428
295.36932
295.50485
295.6313
295.74912
295.85883
295.96094
296.05601
296.14458
296.22716
296.3043
296.37649
296.44421
296.50791
296.56805
296.62501
296.6792
296.73097
296.78066
296.82861
296.87511
296.92048
296.96502
297.00906
297.05298
297.09719
297.14211
297.18813
297.23557
297.28474
297.33616
297.39072
297.44912
297.51125
297.57743
297.6494
297.72469
297.79973
297.90966
290.48159
282.48051
287.59803
285.17203
287.09079
286.47406
287.15018
287.20758
287.51545
287.73291
287.98205
288.22899
288.48238
288.74079
289.00469
289.27386
289.5481
289.82701
290.11009
290.39667
290.68601
290.97722
291.26933
291.56127
291.85192
292.14009
292.42457
292.70418
292.97772
293.24407
293.50219
293.75114
293.99009
294.21837
294.43544
294.64094
294.83465
295.01652
295.18663
295.34521
295.49257
295.62916
295.75547
295.87208
295.97958
296.07862
296.16983
296.25385
296.33133
296.40287
296.46905
296.53045
296.58758
296.64094
296.69099
296.73817
296.78286
296.82545
296.86627
296.90565
296.94389
296.98128
297.01809
297.05458
297.09107
297.12788
297.1654
297.20401
297.2441
297.28597
297.32989
297.37634
297.42605
297.47965
297.53748
297.60014
297.668
297.73741
297.80887
297.91836
290.41298
282.49469
287.63416
285.26502
287.14474
286.61124
287.29036
287.38181
287.70663
287.95607
288.22963
288.50382
288.78446
289.07047
289.36207
289.65887
289.96043
290.26608
290.57506
290.8864
291.19905
291.51183
291.82345
292.13256
292.43779
292.73772
293.03098
293.31624
293.59225
293.85788
294.11215
294.35424
294.58352
294.79953
295.00203
295.19095
295.36639
295.52864
295.67809
295.81528
295.9408
296.05536
296.15968
296.25452
296.34065
296.41883
296.48981
296.55431
296.61303
296.6666
296.71565
296.76073
296.80238
296.84106
296.87724
296.9113
296.94363
296.97457
297.00443
297.0335
297.06205
297.09034
297.1186
297.14708
297.17602
297.20573
297.23654
297.26881
297.3029
297.33911
297.37771
297.41908
297.46377
297.51236
297.5657
297.62475
297.68819
297.75114
297.81903
297.92791
290.38358
282.57929
287.73131
285.44832
287.27064
286.83704
287.49137
287.64551
287.98211
288.26627
288.56911
288.87453
289.1865
289.504
289.82693
290.1546
290.48625
290.82087
291.15729
291.4942
291.83014
292.16358
292.49291
292.81648
293.13265
293.43986
293.73661
294.02154
294.29346
294.55138
294.79454
295.0224
295.23467
295.43128
295.61237
295.7783
295.92957
296.06683
296.19083
296.3024
296.40244
296.49185
296.57156
296.64247
296.70547
296.76141
296.8111
296.85528
296.89466
296.9299
296.96159
296.99026
297.01642
297.04052
297.06296
297.0841
297.10428
297.1238
297.14293
297.16192
297.18102
297.20043
297.22035
297.24099
297.26256
297.28531
297.30953
297.33554
297.36368
297.39425
297.42753
297.46382
297.50343
297.5469
297.59563
297.65095
297.70976
297.76598
297.83032
297.93795
290.39094
282.73934
287.88808
285.68948
287.48716
287.13768
287.78078
287.9925
288.35269
288.67527
289.01309
289.35462
289.70262
290.0559
290.41391
290.77558
291.13967
291.5047
291.86904
292.23091
292.58842
292.93965
293.28265
293.61553
293.93649
294.24388
294.53627
294.81245
295.0715
295.31279
295.53598
295.74101
295.92809
296.09767
296.25039
296.38707
296.50864
296.61612
296.7106
296.79317
296.86494
296.927
296.98038
297.02609
297.06506
297.09817
297.12622
297.14997
297.17008
297.18717
297.20179
297.21444
297.22555
297.23552
297.24471
297.25343
297.26195
297.27053
297.2794
297.28877
297.29883
297.30975
297.3217
297.33483
297.34933
297.36539
297.38326
297.40321
297.42557
297.45062
297.47866
297.50993
297.5445
297.58288
297.62694
297.67829
297.73239
297.78213
297.84292
297.94806
290.44171
282.99265
288.1078
286.02375
287.78819
287.53222
288.16637
288.44187
288.83291
289.19888
289.57781
289.96096
290.35001
290.74336
291.13988
291.53791
291.9356
292.3309
292.72162
293.10545
293.48007
293.84319
294.19262
294.52635
294.84263
295.14
295.41735
295.67392
295.90935
296.12359
296.31698
296.49008
296.64375
296.77902
296.89704
296.99908
297.08648
297.16055
297.22264
297.27403
297.31595
297.34957
297.37598
297.39619
297.41112
297.42163
297.42847
297.43232
297.43381
297.43348
297.4318
297.42921
297.42607
297.42272
297.41944
297.41649
297.41408
297.41243
297.4117
297.41206
297.41365
297.41662
297.42109
297.42718
297.43502
297.44477
297.45663
297.47083
297.48765
297.50739
297.53037
297.55673
297.58641
297.61987
297.65925
297.70624
297.75552
297.79959
297.857
297.95784
290.54019
283.35993
288.37591
286.45455
288.16644
288.0306
288.6651
289.00799
289.4404
289.85635
290.28336
290.71407
291.14904
291.58608
292.02325
292.45817
292.88827
293.31082
293.72301
294.12203
294.5052
294.87007
295.21445
295.53657
295.8351
296.10914
296.35831
296.58264
296.7826
296.95898
297.11288
297.24562
297.35868
297.45363
297.5321
297.59571
297.64607
297.68469
297.71304
297.73249
297.74428
297.74959
297.74947
297.74486
297.73663
297.72553
297.71223
297.69734
297.68137
297.66477
297.64796
297.63126
297.61497
297.59935
297.58462
297.57095
297.55853
297.54749
297.53796
297.53006
297.52389
297.51956
297.51714
297.51673
297.51842
297.52233
297.5286
297.53743
297.54906
297.56378
297.5819
297.60352
297.62852
297.65738
297.69219
297.73428
297.77836
297.81791
297.87221
297.9675
290.69005
283.85175
288.71067
286.99667
288.65604
288.65122
289.29771
289.71483
290.19947
290.67292
291.15477
291.63824
292.1226
292.60485
293.08208
293.55101
294.00821
294.45025
294.8738
295.27577
295.65349
296.00476
296.32797
296.6221
296.88676
297.1221
297.32882
297.50802
297.66116
297.78994
297.89624
297.98205
298.04936
298.10016
298.13637
298.1598
298.17218
298.17509
298.16999
298.15819
298.14089
298.11915
298.09391
298.06602
298.03621
298.00513
297.97332
297.94127
297.90939
297.87805
297.84753
297.8181
297.78997
297.76332
297.73829
297.71502
297.69361
297.67414
297.65671
297.64138
297.62822
297.61729
297.60865
297.60235
297.59846
297.59705
297.59822
297.60212
297.60895
297.619
297.63254
297.64963
297.6702
297.69484
297.72533
297.76211
297.8003
297.83618
297.88847
297.97643
290.89596
284.4271
289.14252
287.67336
289.27872
289.42169
290.09468
290.59284
291.14027
291.67818
292.22017
292.75943
293.29366
293.8187
294.33045
294.82459
295.29695
295.74365
296.16131
296.54723
296.89946
297.21684
297.49902
297.74638
297.95994
298.14125
298.29226
298.41521
298.51251
298.58664
298.64009
298.67527
298.6945
298.69994
298.69359
298.67731
298.65275
298.62141
298.58461
298.54356
298.49927
298.45266
298.40453
298.35554
298.3063
298.2573
298.20897
298.16167
298.1157
298.07132
298.02872
297.98808
297.94953
297.91318
297.87911
297.84739
297.81807
297.7912
297.76681
297.74493
297.72559
297.70882
297.69464
297.6831
297.67422
297.66804
297.66463
297.66408
297.66657
297.67234
297.68161
297.69441
297.71081
297.7316
297.75814
297.7896
297.82129
297.85337
297.905
297.9856
291.17484
285.15456
289.752
288.52247
290.07214
290.37609
291.09199
291.67739
292.29661
292.90433
293.50888
294.10269
294.68143
295.23953
295.77171
296.27301
296.73915
297.16676
297.55346
297.89799
298.20012
298.46059
298.68093
298.86331
299.01039
299.12511
299.21057
299.26992
299.30623
299.32247
299.3214
299.3056
299.2774
299.23893
299.19207
299.13851
299.07972
299.017
298.95147
298.88411
298.81575
298.74711
298.6788
298.61133
298.54512
298.48055
298.41789
298.3574
298.29927
298.24364
298.19064
298.14036
298.09284
298.04815
298.0063
297.96731
297.93118
297.89792
297.8675
297.83995
297.81524
297.79338
297.77438
297.75823
297.74496
297.73458
297.72711
297.72261
297.72122
297.72314
297.72848
297.73728
297.74979
297.76699
297.78986
297.81649
297.84207
297.86966
297.92037
297.99636
291.55997
286.0601
290.51806
289.5822
291.07704
291.55133
292.32973
293.00903
293.70658
294.38536
295.04818
295.6861
296.29287
296.86192
297.38784
297.86633
298.29458
298.67121
298.99629
299.2711
299.49796
299.67996
299.82071
299.92412
299.99421
300.03496
300.05021
300.04355
300.01832
299.97755
299.92394
299.85992
299.78762
299.70891
299.62541
299.53851
299.44941
299.35915
299.26859
299.17847
299.0894
299.00189
298.91637
298.83318
298.75261
298.67486
298.60012
298.52852
298.46014
298.39505
298.3333
298.27489
298.21983
298.16811
298.1197
298.07456
298.03267
297.99398
297.95845
297.92606
297.89676
297.87054
297.84738
297.82726
297.81018
297.79613
297.78511
297.77715
297.77236
297.77083
297.77264
297.77781
297.78675
297.80055
297.81974
297.84178
297.86236
297.88646
297.93528
298.00612
292.09342
287.20954
291.45292
290.88985
292.34462
292.99752
293.85867
294.63597
295.4101
296.14936
296.85128
297.50611
298.10718
298.64898
299.12816
299.54337
299.89518
300.18579
300.41871
300.59832
300.7296
300.81778
300.86808
300.88557
300.87501
300.84079
300.78689
300.71685
300.63381
300.54051
300.43931
300.33226
300.22111
300.10735
299.99223
299.87682
299.762
299.64851
299.53695
299.42782
299.32152
299.21837
299.11862
299.02246
298.93004
298.84146
298.75677
298.67602
298.59922
298.52635
298.45738
298.39228
298.33099
298.27345
298.2196
298.16936
298.12267
298.07946
298.03965
298.0032
297.97004
297.94013
297.91343
297.88991
297.86956
297.85234
297.83825
297.82729
297.81952
297.81497
297.81363
297.81558
297.82136
297.83198
297.84749
297.86504
297.88142
297.90324
297.94983
298.01349
292.81351
288.66196
292.66781
292.51358
293.95099
294.78405
295.73688
296.60188
297.43058
298.19655
298.89465
299.51708
300.06019
300.52277
300.90636
301.21462
301.45284
301.62736
301.74508
301.813
301.83799
301.82648
301.78441
301.71711
301.6293
301.5251
301.40809
301.28133
301.14743
301.00859
300.86666
300.7232
300.57948
300.43658
300.29538
300.15658
300.02076
299.88838
299.75981
299.63533
299.51515
299.39941
299.28822
299.18165
299.07972
298.98243
298.88976
298.80166
298.71807
298.63892
298.56413
298.49361
298.42726
298.36499
298.3067
298.25229
298.20166
298.15472
298.11138
298.07156
298.03518
298.00218
297.97251
297.94612
297.92297
297.90304
297.88629
297.87274
297.86238
297.85519
297.8511
297.85025
297.85325
297.86093
297.87286
297.8862
297.89905
297.91902
297.96246
298.01786
293.7259
290.53167
294.24561
294.54302
295.9808
296.9782
298.00132
298.91284
299.74168
300.47
301.09605
301.6186
302.04114
302.36964
302.61221
302.77807
302.87688
302.91816
302.91091
302.86339
302.78294
302.67603
302.54822
302.40428
302.24822
302.08342
301.91269
301.73834
301.56231
301.38615
301.21115
301.03835
300.86858
300.7025
300.54063
300.38337
300.23103
300.08384
299.94194
299.80544
299.6744
299.54882
299.42869
299.31396
299.20458
299.10045
299.00149
298.9076
298.81865
298.73452
298.6551
298.58026
298.50987
298.4438
298.38194
298.32415
298.27033
298.22035
298.17411
298.13152
298.09248
298.05692
298.02476
297.99595
297.97043
297.94817
297.92914
297.91334
297.90072
297.89123
297.88477
297.88154
297.8821
297.88703
297.89553
297.90503
297.91486
297.93293
297.97252
298.01995
294.95035
292.9385
296.29818
297.04828
298.46802
299.60252
300.6265
301.49924
302.23868
302.84045
303.31312
303.66606
303.91203
304.06461
304.13757
304.14399
304.09581
304.00358
303.87646
303.72221
303.54736
303.35731
303.15652
302.94862
302.73656
302.52275
302.30909
302.09712
301.88806
301.68287
301.4823
301.28693
301.09718
300.91339
300.73577
300.56446
300.39957
300.24111
300.08909
299.94345
299.80414
299.67105
299.54408
299.42311
299.308
299.19861
299.09479
298.99639
298.90326
298.81525
298.73219
298.65394
298.58034
298.51125
298.44652
298.38602
298.32961
298.27716
298.22856
298.18369
298.14246
298.10477
298.07053
298.03968
298.01215
297.9879
297.9669
297.94912
297.93453
297.92301
297.91453
297.90926
297.9077
297.91007
297.91533
297.9214
297.92876
297.94523
297.98092
298.0208
296.52093
295.98441
298.84917
300.04639
301.51972
302.57529
303.48382
304.19522
304.7378
305.12276
305.37184
305.50524
305.54323
305.50406
305.40376
305.25597
305.07202
304.86123
304.6311
304.38769
304.1358
303.87926
303.62105
303.36354
303.10857
302.85755
302.61157
302.37147
302.13785
301.91116
301.69171
301.47971
301.27528
301.07847
300.88927
300.70765
300.53351
300.36675
300.20724
300.05483
299.90937
299.77068
299.63858
299.5129
299.39346
299.28007
299.17253
299.07068
298.97432
298.88328
298.79737
298.71644
298.6403
298.5688
298.50177
298.43908
298.38056
298.3261
298.27555
298.2288
298.18574
298.14626
298.11028
298.0777
298.04846
298.0225
297.99979
297.98028
297.96392
297.95062
297.94036
297.93334
297.92989
297.92995
297.9324
297.93573
297.94121
297.95583
297.98638
298.01765
298.48757
299.67933
302.31024
303.56667
304.79446
305.67256
306.33206
306.76468
307.01955
307.12618
307.11679
307.01747
306.8503
306.63297
306.37953
306.10099
305.80585
305.5007
305.19053
304.87919
304.56957
304.26386
303.96367
303.67022
303.38437
303.10675
302.83778
302.57771
302.32671
302.08482
301.85204
301.62829
301.41347
301.20743
301.01001
300.82101
300.64025
300.46752
300.30259
300.14525
299.99527
299.85244
299.71654
299.58734
299.46462
299.34817
299.23779
299.13325
299.03437
298.94095
298.85278
298.7697
298.69152
298.61806
298.54916
298.48465
298.4244
298.36825
298.31606
298.26772
298.2231
298.18209
298.1446
298.11053
298.07981
298.05237
298.02815
298.00711
297.98916
297.97425
297.96239
297.95374
297.9485
297.94644
297.94654
297.94787
297.952
297.9645
297.98955
298.01378
301.17283
304.08011
306.04514
307.19961
308.1057
308.61663
308.89026
308.96135
308.88842
308.70948
308.4561
308.15141
307.8128
307.45304
307.08149
306.70501
306.32853
305.95564
305.58891
305.23015
304.88063
304.54119
304.21238
303.89452
303.58777
303.29217
303.00765
302.73409
302.4713
302.21908
301.97719
301.74538
301.52339
301.31093
301.10773
300.91353
300.72803
300.55097
300.38208
300.22109
300.06774
299.92177
299.78294
299.65099
299.52569
299.40681
299.29412
299.1874
299.08643
298.99101
298.90095
298.81603
298.73609
298.66094
298.59041
298.52432
298.46253
298.40488
298.35124
298.30146
298.25544
298.21305
298.17419
298.13878
298.10672
298.07794
298.05237
298.02995
298.01059
297.99424
297.98092
297.97075
297.96379
297.95975
297.95793
297.95788
297.96101
297.97111
297.99017
298.00823
304.91047
308.74398
309.97347
310.65387
311.00103
311.03248
310.87986
310.5977
310.23483
309.82168
309.37987
308.92389
308.46361
308.00572
307.55467
307.11345
306.68398
306.26746
305.8646
305.47574
305.10099
304.74028
304.39344
304.06019
303.74023
303.43321
303.13876
302.85651
302.58608
302.32708
302.07915
301.84191
301.61501
301.39809
301.19082
300.99286
300.80389
300.62359
300.45168
300.28785
300.13182
299.98331
299.84206
299.70781
299.58031
299.45932
299.3446
299.23592
299.13307
299.03584
298.94402
298.85741
298.77582
298.69908
298.627
298.55941
298.49616
298.43708
298.38204
298.3309
298.28353
298.23981
298.19965
298.16294
298.12961
298.09957
298.07275
298.04907
298.02844
298.01082
297.99621
297.98464
297.97609
297.97033
297.96695
297.96589
297.96812
297.97566
297.98921
298.00275
310.48163
312.90135
313.33585
313.29609
313.07218
312.66083
312.16385
311.61939
311.05562
310.48847
309.92776
309.37934
308.84662
308.3315
307.83489
307.35711
306.89809
306.45751
306.0349
305.62974
305.24142
304.86934
304.51289
304.17148
303.84451
303.53144
303.23171
302.94482
302.67026
302.40757
302.1563
301.91602
301.68631
301.46679
301.25709
301.05684
300.86569
300.68333
300.50943
300.34368
300.1858
300.03549
299.89249
299.75654
299.62737
299.50474
299.38842
299.27817
299.17378
299.07504
298.98173
298.89367
298.81065
298.73251
298.65905
298.59012
298.52555
298.46517
298.40885
298.35643
298.3078
298.26284
298.22143
298.18349
298.14894
298.11769
298.08968
298.06482
298.04304
298.02428
298.00851
297.99568
297.98573
297.97848
297.97385
297.97197
297.9734
297.97876
297.9878
297.9982
314.08884
315.0802
315.23125
314.7266
314.10414
313.42854
312.74051
312.0605
311.39814
310.75865
310.14412
309.55527
308.99192
308.45341
307.93885
307.44724
306.97753
306.52867
306.09966
305.68953
305.29738
304.92234
304.56362
304.22045
303.89214
303.57803
303.2775
302.98998
302.71492
302.45181
302.20018
301.95956
301.72954
301.5097
301.29965
301.09903
300.90749
300.72469
300.55031
300.38405
300.2256
300.07469
299.93104
299.79438
299.66448
299.54107
299.42393
299.31283
299.20755
299.10788
299.01363
298.92459
298.84057
298.7614
298.6869
298.61691
298.55125
298.48978
298.43234
298.3788
298.32902
298.28288
298.24029
298.20115
298.1654
298.13296
298.10376
298.07775
298.05484
298.03498
298.01812
298.00419
297.99307
297.98467
297.97895
297.97604
297.97627
297.97991
297.98678
297.99567
310.67771
308.93735
305.67785
302.86741
301.87523
301.88874
301.5475
301.33279
301.1583
301.00742
300.87708
300.75037
300.63737
300.5337
300.43303
300.33274
300.23391
300.1363
300.03961
299.94366
299.84836
299.75364
299.65947
299.56585
299.47281
299.38038
299.28861
299.19756
299.10728
299.01786
298.92937
298.8419
298.75552
298.67033
298.58642
298.50389
298.42284
298.34338
298.2656
298.18963
298.11556
298.04353
297.97365
297.90603
297.84081
297.77811
297.71805
297.66077
297.60638
297.55502
297.50681
297.46186
297.42028
297.38219
297.34766
297.3168
297.28966
297.26631
297.24676
297.23104
297.21921
297.21129
297.20728
297.20718
297.21108
297.21904
297.23126
297.24765
297.26873
297.2935
297.32436
297.35693
297.40148
297.44081
297.50633
297.54201
297.64356
297.66707
297.81199
297.83058
306.86149
304.70303
300.65756
299.4371
299.42226
299.53681
299.69633
299.74839
299.78705
299.82048
299.84332
299.84295
299.82674
299.79762
299.76108
299.71852
299.67059
299.61775
299.56068
299.49997
299.4361
299.36954
299.30065
299.22982
299.15734
299.08353
299.00866
298.93299
298.85675
298.78018
298.7035
298.62689
298.55057
298.4747
298.39949
298.32509
298.25168
298.17941
298.10846
298.03897
297.97111
297.90502
297.84086
297.77879
297.71894
297.66147
297.60651
297.55423
297.50474
297.4582
297.41473
297.37446
297.33748
297.30392
297.27386
297.24739
297.22456
297.20544
297.19002
297.17834
297.17044
297.16632
297.16599
297.16945
297.17675
297.18797
297.20328
297.22265
297.24645
297.27392
297.30704
297.34223
297.38841
297.4304
297.49644
297.53541
297.6364
297.66255
297.80896
297.82514
307.37929
303.26832
300.19166
299.01645
299.0423
299.15707
299.28124
299.30315
299.33656
299.33581
299.33655
299.32581
299.31389
299.2959
299.27367
299.24632
299.21462
299.17873
299.13898
299.09568
299.04908
298.99946
298.94711
298.89228
298.83526
298.77629
298.71563
298.65355
298.59027
298.52604
298.46108
298.39563
298.32989
298.26409
298.19843
298.13311
298.06833
298.00428
297.94117
297.87917
297.81847
297.75926
297.70171
297.64599
297.59228
297.54075
297.49156
297.44487
297.40083
297.3596
297.32131
297.2861
297.25407
297.22534
297.20001
297.17815
297.15983
297.14508
297.13392
297.12637
297.12246
297.12219
297.12556
297.13256
297.14325
297.1577
297.17607
297.19832
297.22482
297.25487
297.29027
297.32787
297.37583
297.42001
297.48718
297.5286
297.63008
297.65795
297.806
297.82064
306.29339
301.14963
299.17591
298.28266
298.5297
298.58829
298.71326
298.72325
298.7712
298.78419
298.80561
298.80978
298.8114
298.80483
298.79432
298.77903
298.75982
298.73669
298.70998
298.67994
298.6468
298.61077
298.57208
298.53092
298.48749
298.44199
298.39461
298.34557
298.29504
298.24325
298.19037
298.13663
298.08221
298.02734
297.97221
297.91703
297.862
297.80734
297.75325
297.69992
297.64757
297.5964
297.54659
297.49834
297.45185
297.40729
297.36485
297.32471
297.28703
297.25198
297.21969
297.19031
297.16396
297.14074
297.12077
297.10413
297.09086
297.08101
297.07459
297.07159
297.07207
297.07602
297.08341
297.09425
297.10858
297.12649
297.14812
297.17344
297.20279
297.23554
297.27335
297.31341
297.36329
297.40959
297.47804
297.52185
297.62376
297.65339
297.80302
297.81631
305.27089
300.03737
298.6012
297.86935
298.22188
298.20749
298.33939
298.32168
298.36903
298.36595
298.38068
298.37716
298.37665
298.36967
298.3612
298.34937
298.33509
298.31818
298.29882
298.2771
298.25311
298.2269
298.19857
298.1682
298.13589
298.10173
298.06584
298.02834
297.98936
297.94905
297.90756
297.86504
297.82166
297.7776
297.73304
297.68818
297.64319
297.59829
297.55367
297.50953
297.46609
297.42353
297.38208
297.34193
297.30327
297.26632
297.23125
297.19826
297.16752
297.1392
297.11344
297.0904
297.0702
297.05296
297.03877
297.02772
297.01987
297.01524
297.01384
297.01567
297.02077
297.02913
297.04073
297.05556
297.07367
297.09514
297.12011
297.14858
297.18082
297.21631
297.25658
297.29909
297.35094
297.39925
297.46917
297.51512
297.61778
297.64887
297.80007
297.81228
304.7534
298.9472
297.96413
297.32184
297.76913
297.69052
297.85025
297.81944
297.88228
297.88006
297.90512
297.9073
297.91478
297.91474
297.91387
297.90971
297.90347
297.89487
297.88415
297.87135
297.85658
297.83988
297.82133
297.80098
297.77891
297.75518
297.72987
297.70306
297.67486
297.64535
297.61466
297.5829
297.55021
297.51674
297.48263
297.44806
297.41319
297.37822
297.34331
297.30868
297.27451
297.241
297.20836
297.17679
297.1465
297.11767
297.09052
297.06522
297.04195
297.02089
297.00218
296.98598
296.97241
296.96159
296.95361
296.94856
296.9465
296.94744
296.95138
296.95833
296.96831
296.98132
296.99733
297.01633
297.03837
297.06354
297.09196
297.12366
297.15888
297.19714
297.23993
297.28491
297.33876
297.38909
297.46049
297.50852
297.61199
297.64447
297.79719
297.80851
304.2779
297.78236
297.3815
296.78486
297.31045
297.18396
297.3763
297.33405
297.41343
297.41102
297.44462
297.451
297.46533
297.47152
297.47751
297.48025
297.48114
297.47993
297.47686
297.47198
297.46539
297.45714
297.4473
297.43591
297.42302
297.40869
297.39296
297.3759
297.35756
297.33802
297.31737
297.2957
297.27312
297.24974
297.22569
297.20111
297.17616
297.15098
297.12576
297.10066
297.07588
297.05159
297.02799
297.00528
296.98365
296.9633
296.94442
296.92719
296.91179
296.89838
296.88711
296.87813
296.87157
296.86754
296.86612
296.86741
296.87144
296.87823
296.88777
296.90007
296.91514
296.93299
296.95356
296.97687
297.00296