/*--------------------------------*- C++ -*----------------------------------*\
| =========                 |                                                 |
| \\      /  F ield         | OpenFOAM: The Open Source CFD Toolbox           |
|  \\    /   O peration     | Version:  2512                                  |
|   \\  /    A nd           | Website:  www.openfoam.com                      |
|    \\/     M anipulation  |                                                 |
\*---------------------------------------------------------------------------*/
FoamFile
{
    version     2.0;
    format      ascii;
    arch        "LSB;label=32;scalar=64";
    class       volVectorField;
    location    "0.141";
    object      U;
}
// * * * * * * * * * * * * * * * * * * * * * * * * * * * * * * * * * * * * * //

dimensions      [0 1 -1 0 0 0 0];

internalField   nonuniform List<vector> 
16000
(
(214.80428 -3.1200662e-17 -8.3419969)
(251.95725 0 5.3508763)
(238.30676 0 -7.5444922)
(246.06673 4.956363e-17 3.7658946)
(241.46487 -4.9015468e-17 -5.9353138)
(243.72533 0 1.7371639)
(241.96999 0 -4.3197162)
(242.51093 8.3864905e-17 -0.041025816)
(241.70041 -7.9705798e-17 -3.163022)
(241.60283 0 -1.2790625)
(241.10896 7.202359e-17 -2.5753231)
(240.77973 -2.0519468e-16 -1.9972613)
(240.35179 1.2988272e-16 -2.4372403)
(239.93709 -1.2355094e-16 -2.3756633)
(239.49272 1.1722862e-16 -2.5382741)
(239.03318 -3.4775805e-18 -2.6115257)
(238.55384 -3.3036145e-18 -2.7164404)
(238.05576 -9.7483513e-17 -2.8106317)
(237.53849 1.9099283e-16 -2.9066523)
(237.00198 -9.0619247e-17 -3.0005215)
(236.44615 1.7237158e-16 -3.0926281)
(235.87097 -1.6339388e-16 -3.1822753)
(235.2765 0 -3.2689629)
(234.66288 1.5209506e-16 -3.3521062)
(234.03033 -4.115783e-18 -3.4311104)
(233.37917 -2.6545236e-16 -3.5053471)
(232.70984 1.258146e-16 -3.5741798)
(232.02291 0 -3.6369572)
(231.31903 0 -3.69303)
(230.59904 2.1849837e-16 -3.7417553)
(229.86387 -2.0357988e-16 -3.7825106)
(229.11461 0 -3.814702)
(228.35248 0 -3.8377754)
(227.57885 0 -3.8512312)
(226.79519 5.1362196e-18 -3.8546338)
(226.00312 1.5586876e-16 -3.8476245)
(225.20437 -1.4268287e-16 -3.829933)
(224.40074 -1.3974843e-16 -3.801386)
(223.59415 1.2373693e-16 -3.7619176)
(222.78655 0 -3.7115765)
(221.97995 -1.1842858e-16 -3.6505289)
(221.17637 1.1178228e-16 -3.5790627)
(220.37782 -2.1185049e-16 -3.497585)
(219.58629 1.9987394e-16 -3.4066196)
(218.8037 -1.9520864e-16 -3.3068002)
(218.0319 3.5739508e-16 -3.1988595)
(217.27263 5.6008518e-18 -3.0836181)
(216.52751 2.9815334e-19 -2.9619696)
(215.79803 -1.5043288e-16 -2.8348632)
(215.08551 1.4227743e-16 -2.7032868)
(214.39111 -1.2567447e-16 -2.5682485)
(213.71581 0 -2.4307573)
(213.06042 7.4695983e-18 -2.2918069)
(212.42555 0 -2.1523568)
(211.81163 6.6470473e-18 -2.0133184)
(211.2189 2.069731e-16 -1.8755424)
(210.64742 -3.7829719e-16 -1.7398067)
(210.0971 1.0923686e-17 -1.6068069)
(209.56766 1.6810433e-16 -1.4771462)
(209.05861 -1.4879663e-16 -1.3513426)
(208.56928 1.4015814e-16 -1.2298045)
(208.09891 -8.819569e-18 -1.1128759)
(207.64658 0 -1.0007974)
(207.21112 0 -0.89370664)
(206.79109 -1.1114297e-16 -0.79166026)
(206.38463 1.1182263e-16 -0.69463195)
(205.98951 -9.908587e-17 -0.60252959)
(205.60322 1.9341268e-16 -0.51520755)
(205.2232 -1.8875648e-16 -0.43248066)
(204.84711 8.3680003e-17 -0.35414605)
(204.47264 5.2842535e-18 -0.27999938)
(204.09713 0 -0.20984499)
(203.71722 4.7510695e-18 -0.14356245)
(203.32929 -4.513013e-18 -0.081065798)
(202.93118 0 -0.021927354)
(202.52279 -3.3750402e-17 0.032561197)
(202.0947 6.2470697e-17 0.08246316)
(201.71121 -3.1744567e-17 0.15495949)
(201.10676 0 0.080226563)
(200.97014 0 0.47704368)
(216.09896 0 -11.153647)
(253.57548 -3.7093987e-18 3.3098502)
(239.26871 -1.1966723e-16 -10.469467)
(247.50873 1.1012012e-16 1.6780216)
(242.55617 0 -8.7983347)
(245.0458 1.0141649e-16 -0.42242412)
(243.08828 -1.87444e-16 -7.0655074)
(243.7159 -1.0218152e-19 -2.3237597)
(242.8152 8.4472658e-17 -5.75398)
(242.71784 0 -3.6789961)
(242.18322 -1.5259288e-16 -5.0523921)
(241.82482 1.49264e-16 -4.4421789)
(241.36471 1.4197237e-16 -4.8686684)
(240.9154 -2.6135623e-16 -4.8080539)
(240.43628 1.2014968e-16 -4.9508114)
(239.9401 1.1046262e-17 -5.0170213)
(239.42313 1.1551031e-16 -5.1066628)
(238.8861 -1.0287573e-16 -5.1874561)
(238.32872 0 -5.2677615)
(237.75099 0 -5.3448769)
(237.15289 5.6770998e-18 -5.4186805)
(236.53451 -1.7809224e-16 -5.488463)
(235.89602 3.3769637e-16 -5.5535874)
(235.23768 -3.1555236e-16 -5.6133679)
(234.55985 1.4262613e-16 -5.6671025)
(233.86303 0 -5.714074)
(233.14783 1.2439656e-16 -5.7535549)
(232.41501 -1.3338973e-16 -5.7848221)
(231.66544 0 -5.8071643)
(230.90016 3.5253796e-18 -5.819893)
(230.12036 -1.3371087e-17 -5.8223542)
(229.32737 0 -5.813944)
(228.52264 0 -5.7941165)
(227.7078 -1.7061379e-16 -5.7624047)
(226.88458 3.3877973e-16 -5.7184287)
(226.05485 -1.626782e-16 -5.6619109)
(225.22054 -1.5908433e-16 -5.592689)
(224.38371 1.4560208e-16 -5.5107232)
(223.54644 -1.1214754e-16 -5.4161076)
(222.71086 -2.8719258e-19 -5.3090742)
(221.87911 -2.6862949e-19 -5.1899961)
(221.05331 2.3277727e-16 -5.0593864)
(220.23553 -1.0982728e-16 -4.9178941)
(219.42776 0 -4.766296)
(218.63192 2.0236779e-16 -4.6054865)
(217.84977 1.1938325e-17 -4.4364627)
(217.08297 -5.1163926e-18 -4.2603071)
(216.33298 -1.6453314e-16 -4.0781691)
(215.60112 0 -3.891244)
(214.88852 -1.4655444e-16 -3.7007513)
(214.19611 -8.8591203e-18 -3.5079148)
(213.52465 2.601129e-16 -3.3139392)
(212.87468 -1.3008885e-16 -3.1199927)
(212.24657 0 -2.9271877)
(211.64051 -2.03832e-17 -2.7365654)
(211.05651 -2.1121165e-16 -2.5490842)
(210.49441 3.6128007e-16 -2.3656074)
(209.95388 -2.1527888e-16 -2.1868953)
(209.43446 0 -2.0135973)
(208.93552 -1.7080015e-16 -1.8462592)
(208.45623 1.7948555e-16 -1.6852995)
(207.99568 2.6686291e-17 -1.5310486)
(207.55286 0 -1.3837353)
(207.12655 -1.4188916e-16 -1.2434653)
(206.71525 7.321714e-18 -1.1102556)
(206.31712 1.1170688e-16 -0.98403493)
(205.9299 -1.9736279e-17 -0.86466068)
(205.55104 9.2997386e-17 -0.75193205)
(205.17793 -1.0512e-16 -0.64560326)
(204.8081 5.5083123e-18 -0.54540688)
(204.43924 -5.1974386e-18 -0.4510666)
(204.06878 0 -0.36230868)
(203.69334 -4.6374682e-18 -0.27896963)
(203.30911 4.3863911e-18 -0.20097734)
(202.91338 8.3076974e-18 -0.12808919)
(202.50556 9.8439808e-19 -0.060809429)
(202.0885 0 0.0044041599)
(201.66374 3.0224803e-17 0.065064501)
(201.15451 -5.7571598e-17 0.051451229)
(200.87773 2.5855676e-17 0.37772704)
(217.25373 0 -14.037632)
(255.0386 -1.2200766e-16 1.0678733)
(240.22255 2.4972746e-16 -13.478235)
(248.74225 -2.2261561e-16 -0.574546)
(243.53531 1.1015596e-16 -11.733715)
(246.16051 -3.2586724e-18 -2.7712655)
(244.07588 9.927117e-17 -9.8585642)
(244.72878 -9.3985378e-17 -4.801728)
(243.77114 -5.5813775e-18 -8.4103118)
(243.65044 -5.2990377e-18 -6.2439451)
(243.08021 -1.0067568e-17 -7.6292405)
(242.68557 1.388952e-16 -7.0245082)
(242.1897 -1.4079637e-16 -7.420302)
(241.70159 1.3818741e-16 -7.3668539)
(241.18306 -1.1871307e-16 -7.4885621)
(240.6458 -1.555945e-17 -7.5469633)
(240.08648 0 -7.6212254)
(239.50584 -1.1900261e-20 -7.6873786)
(238.90367 -2.263161e-16 -7.7507939)
(238.28006 -3.6789569e-19 -7.8094449)
(237.63512 1.7346602e-16 -7.8628984)
(236.96906 1.7039536e-17 -7.910364)
(236.2822 -2.1552549e-17 -7.9510877)
(235.57495 0 -7.984281)
(234.84787 6.6366324e-21 -8.0091459)
(234.10164 -1.6544942e-16 -8.0248779)
(233.3371 1.4780846e-16 -8.0306771)
(232.55522 8.2493411e-18 -8.0257557)
(231.75717 0 -8.0093575)
(230.94423 -7.4007285e-18 -7.9807641)
(230.11788 -2.30139e-21 -7.9393164)
(229.27974 -1.9922225e-16 -7.8844268)
(228.43159 2.0063974e-16 -7.8155952)
(227.57532 1.1890515e-17 -7.7324293)
(226.71298 -1.7998622e-16 -7.6346536)
(225.8467 1.4854044e-16 -7.5221281)
(224.97869 -1.8100006e-16 -7.394858)
(224.11123 1.517081e-16 -7.2530039)
(223.2466 -1.4364447e-16 -7.0968855)
(222.3871 1.3537815e-16 -6.9269876)
(221.53497 1.6007822e-17 -6.7439569)
(220.69241 0 -6.5485949)
(219.86149 1.9967758e-16 -6.3418506)
(219.04419 -2.4169018e-16 -6.1248054)
(218.24231 0 -5.8986562)
(217.45751 1.7938291e-16 -5.6646972)
(216.69125 -1.5741151e-16 -5.4242941)
(215.94479 1.6984165e-16 -5.178863)
(215.21919 -1.7964712e-16 -4.9298443)
(214.51531 0 -4.6786789)
(213.83379 1.7714788e-16 -4.4267847)
(213.17506 -1.3313256e-16 -4.1755332)
(212.53939 0 -3.9262305)
(211.92682 0 -3.6801)
(211.33725 1.247412e-16 -3.4382663)
(210.77041 -2.0832574e-16 -3.2017468)
(210.22587 1.222912e-16 -2.9714406)
(209.70306 1.8404334e-16 -2.7481246)
(209.20131 1.9804734e-19 -2.5324463)
(208.7198 1.7612033e-19 -2.324933)
(208.25754 -3.2394559e-16 -2.1259767)
(207.81347 8.9401676e-17 -1.9358567)
(207.38647 0 -1.7547571)
(206.97524 1.4208949e-16 -1.5827265)
(206.57824 -1.6299034e-16 -1.419718)
(206.19362 1.1140281e-16 -1.2655948)
(205.81914 1.3148284e-17 -1.1201457)
(205.45223 -8.5961646e-17 -0.98310217)
(205.09023 1.1543491e-17 -0.85415459)
(204.73063 2.1708804e-17 -0.73297536)
(204.37115 -1.0208757e-16 -0.61921475)
(204.00928 9.6013066e-17 -0.51251687)
(203.64173 -7.2341221e-17 -0.41270576)
(203.26449 1.3626825e-16 -0.3197645)
(202.87471 -5.619228e-17 -0.23328194)
(202.47285 -6.0627959e-17 -0.1528572)
(202.06072 5.0092581e-17 -0.077305206)
(201.62551 0 -0.01667271)
(201.16279 3.2055897e-18 0.01625162)
(200.81783 -1.2156372e-17 0.27375428)
(218.24389 0 -16.990773)
(256.34606 0 -1.3065883)
(240.95051 0 -16.617447)
(249.77805 1.0638302e-16 -2.9335644)
(244.32539 -1.2376378e-16 -14.79886)
(247.10399 -2.2021318e-16 -5.2388876)
(244.87795 2.0961821e-16 -12.770103)
(245.55861 -1.241162e-17 -7.4075658)
(244.53661 5.9117374e-18 -11.177498)
(244.38858 -1.7383502e-16 -8.9408373)
(243.7783 1.702016e-16 -10.317695)
(243.342 1.0114971e-17 -9.7325459)
(242.80568 -1.5360772e-16 -10.089454)
(242.27364 1.3645608e-16 -10.044673)
(241.71082 -1.3149044e-20 -10.14387)
(241.12759 -8.1848761e-18 -10.192344)
(240.5212 0 -10.249454)
(239.89232 -7.387908e-18 -10.298372)
(239.24088 -2.1031037e-16 -10.342131)
(238.56709 2.1235553e-16 -10.379164)
(237.87116 1.2604872e-17 -10.408815)
(237.15346 -1.1950556e-17 -10.430208)
(236.41447 2.1535866e-16 -10.442486)
(235.6548 -1.715428e-16 -10.444765)
(234.87523 1.0172685e-17 -10.436149)
(234.07668 1.9289719e-16 -10.415751)
(233.26026 -1.2759959e-16 -10.382698)
(232.42726 0 -10.336151)
(231.57912 1.4744303e-16 -10.275317)
(230.7175 -1.2375861e-16 -10.199474)
(229.8442 2.4942257e-16 -10.107984)
(228.9612 -1.3319264e-17 -10.000316)
(228.07062 -2.0950753e-16 -9.8760614)
(227.17472 1.7377272e-16 -9.7349561)
(226.27584 -1.8719373e-16 -9.5768902)
(225.37643 -3.1668915e-20 -9.401927)
(224.47895 2.0926982e-16 -9.2103092)
(223.5859 -3.1582131e-16 -9.0024657)
(222.69975 9.2950247e-17 -8.7790139)
(221.82289 3.5193564e-17 -8.5407557)
(220.95764 -4.9763787e-17 -8.288672)
(220.10618 0 -8.0239065)
(219.27053 -8.8549355e-17 -7.7477524)
(218.45253 1.3868166e-16 -7.4616285)
(217.65383 -2.0940103e-16 -7.1670571)
(216.87584 1.9675235e-16 -6.8656392)
(216.11976 -2.0868766e-16 -6.5590231)
(215.38653 3.924061e-16 -6.2488785)
(214.67689 -3.0751955e-16 -5.9368694)
(213.99134 3.0837389e-16 -5.624626)
(213.33014 -1.4473896e-16 -5.3137211)
(212.6934 1.3624753e-16 -5.005649)
(212.08098 -9.5779041e-17 -4.7018042)
(211.4926 3.0034519e-17 -4.40347)
(210.92783 0 -4.1118024)
(210.38609 0 -3.827826)
(209.86668 0 -3.5524266)
(209.36878 2.3248349e-17 -3.2863496)
(208.89149 0 -3.0301979)
(208.43381 -1.6362999e-16 -2.7844407)
(207.99461 1.9155519e-16 -2.5494089)
(207.57269 -1.078179e-16 -2.3253043)
(207.16682 -1.1631908e-19 -2.1122359)
(206.77565 2.5224664e-16 -1.9101775)
(206.3976 2.9625279e-17 -1.7190022)
(206.03084 -1.3835043e-16 -1.5384955)
(205.67315 5.1882112e-17 -1.3683692)
(205.32198 -1.4575621e-16 -1.2082808)
(204.97464 -4.5544275e-17 -1.0578551)
(204.62858 -6.4021786e-17 -0.91670265)
(204.28154 -6.0036294e-17 -0.78439488)
(203.93114 5.6261915e-17 -0.66050729)
(203.57416 0 -0.54489548)
(203.20644 0 -0.43753066)
(202.82529 -1.5508097e-17 -0.33753515)
(202.43159 0 -0.24449323)
(202.02406 6.850758e-18 -0.16070432)
(201.59149 5.158795e-17 -0.091517659)
(201.15683 -7.2873813e-17 -0.029578595)
(200.76029 -1.2535298e-20 0.16814829)
(219.04922 0 -20.141015)
(257.4778 -8.7786999e-18 -3.7530161)
(241.54863 2.6646395e-16 -19.88935)
(250.62065 -2.4843697e-16 -5.4186679)
(244.87811 2.540191e-16 -17.977952)
(247.84003 -2.3217591e-16 -7.8594043)
(245.4757 -2.2150746e-16 -15.786797)
(246.17369 2.0961368e-16 -10.170797)
(245.08903 0 -14.047217)
(244.90404 0 -11.786934)
(244.25182 1.7970844e-16 -13.119624)
(243.76741 -1.7025092e-16 -12.572348)
(243.1862 -1.0114224e-17 -12.880463)
(242.60533 2.8770022e-17 -12.84349)
(241.99354 -9.1044006e-18 -12.918022)
(241.35971 3.4532436e-17 -12.952801)
(240.70165 0 -12.989852)
(240.01996 0 -13.017876)
(239.31471 -2.358422e-16 -13.038288)
(238.58619 2.0915801e-16 -13.049742)
(237.8348 0 -13.051385)
(237.06108 0 -13.042225)
(236.26575 -1.9031003e-16 -13.021263)
(235.44968 3.6015928e-16 -12.987493)
(234.61393 -1.7034248e-16 -12.939908)
(233.75978 -2.017996e-17 -12.877525)
(232.88868 -3.8222187e-17 -12.799402)
(232.0023 -1.4483012e-16 -12.704661)
(231.10251 1.1957821e-16 -12.592507)
(230.19136 0 -12.462248)
(229.27109 -3.0627852e-17 -12.313321)
(228.34407 0 -12.145317)
(227.41285 0 -11.957989)
(226.48004 2.0675421e-16 -11.751283)
(225.54835 -2.191418e-16 -11.525342)
(224.62049 2.2987292e-17 -11.280519)
(223.69919 -2.1689954e-17 -11.017388)
(222.78712 -4.1009602e-17 -10.736734)
(221.88686 -8.8686547e-20 -10.439556)
(221.00085 8.4159908e-20 -10.127048)
(220.13138 -7.9350852e-20 -9.8005907)
(219.28051 0 -9.4617231)
(218.45011 -1.2173794e-16 -9.1121225)
(217.64178 1.1431746e-16 -8.7535709)
(216.85687 0 -8.3879254)
(216.09645 -5.067134e-17 -8.0170905)
(215.36133 1.9044367e-16 -7.642978)
(214.65207 -2.2325413e-16 -7.2674824)
(213.96897 -2.100442e-16 -6.8924488)
(213.31209 1.5747885e-16 -6.5196472)
(212.68128 1.1106897e-16 -6.150749)
(212.07621 -1.3864043e-16 -5.7873092)
(211.49637 -3.2503791e-17 -5.430748)
(210.94109 -2.1353746e-16 -5.0823436)
(210.40958 1.1420852e-16 -4.7432208)
(209.90097 -1.0711647e-16 -4.4143504)
(209.41427 1.0019208e-16 -4.0965484)
(208.94842 2.3475409e-16 -3.790476)
(208.50232 -1.7557699e-16 -3.4966436)
(208.07479 0 -3.215422)
(207.66456 -3.8422028e-17 -2.9470412)
(207.27033 -7.1920876e-17 -2.6915996)
(206.89079 1.3439036e-16 -2.4491026)
(206.52452 1.2573558e-16 -2.2194296)
(206.16995 -2.3497093e-16 -2.0023576)
(205.82526 8.2293613e-17 -1.7975821)
(205.4883 5.1299499e-17 -1.6047282)
(205.15657 9.5906747e-17 -1.4233747)
(204.82736 1.3445446e-16 -1.25308)
(204.49812 2.4099804e-20 -1.09339)
(204.16662 0 -0.9437947)
(203.8306 0 -0.80382672)
(203.48693 -3.4219571e-17 -0.67339212)
(203.13149 9.6011416e-17 -0.5523083)
(202.76187 -8.9799365e-17 -0.43921599)
(202.37839 -8.4062094e-17 -0.33465694)
(201.97744 5.2457245e-17 -0.24302846)
(201.55476 0 -0.16010954)
(201.13884 4.6079748e-17 -0.074387068)
(200.70889 2.1886269e-20 0.064182142)
(219.65447 0 -23.461101)
(258.4111 1.8266472e-20 -6.2768705)
(241.94999 9.0666779e-18 -23.258793)
(251.29088 2.8772468e-16 -8.0393982)
(245.2697 3.3344974e-19 -21.257098)
(248.34396 -5.0520419e-16 -10.626832)
(245.8282 -3.2406543e-19 -18.895921)
(246.54964 4.5587709e-16 -13.093542)
(245.39883 -2.0981432e-16 -17.015332)
(245.17306 -1.2445198e-17 -14.77992)
(244.47803 1.1820428e-17 -16.032223)
(243.94058 -1.7949654e-16 -15.535488)
(243.3108 1.91239e-16 -15.786884)
(242.67683 -1.8171245e-16 -15.753909)
(242.01155 3.0610538e-16 -15.80175)
(241.32235 -3.0841643e-16 -15.818679)
(240.60759 1.3745964e-16 -15.832594)
(239.86785 0 -15.83603)
(239.1034 0 -15.829243)
(238.31475 1.4642305e-17 -15.810881)
(237.50256 -2.7765858e-17 -15.779863)
(236.66765 0 -15.73502)
(235.81109 1.9938284e-16 -15.67519)
(234.93412 4.7438781e-19 -15.599232)
(234.03822 -3.5682713e-16 -15.50603)
(233.1251 1.6860157e-16 -15.394527)
(232.1967 1.9948241e-17 -15.263752)
(231.25515 0 -15.112833)
(230.30284 -1.7871096e-16 -14.941033)
(229.34231 1.3475557e-16 -14.747771)
(228.37629 -2.2346891e-16 -14.532646)
(227.40762 2.1033288e-16 -14.295464)
(226.43926 -2.2764491e-16 -14.036247)
(225.47423 2.1427472e-16 -13.755261)
(224.51555 7.5961913e-17 -13.453014)
(223.5662 0 -13.130261)
(222.62908 0 -12.788012)
(221.70695 4.2335212e-17 -12.427507)
(220.8024 3.9874643e-17 -12.050211)
(219.9178 -3.7541575e-17 -11.657787)
(219.05526 3.5330198e-17 -11.252069)
(218.21663 6.6662418e-17 -10.835032)
(217.40343 -6.2607581e-17 -10.408755)
(216.6169 3.5300461e-16 -9.9753866)
(215.85795 -2.7613643e-16 -9.5371047)
(215.1272 5.1826895e-17 -9.0960833)
(214.42495 -4.8769979e-17 -8.6544542)
(213.75125 0 -8.2142783)
(213.1059 2.1435238e-16 -7.7775153)
(212.48846 -1.6055626e-16 -7.3460028)
(211.89831 0 -6.9214339)
(211.33466 0 -6.5053469)
(210.79658 1.3211471e-16 -6.0991112)
(210.28303 -6.175247e-17 -5.7039261)
(209.79288 0 -5.320816)
(209.32495 -1.6225207e-16 -4.9506342)
(208.878 1.0099907e-16 -4.5940681)
(208.45077 1.4176653e-16 -4.2516437)
(208.04195 -1.7634705e-16 -3.923734)
(207.65023 1.6483307e-16 -3.6105732)
(207.27425 -1.5375593e-16 -3.3122572)
(206.91262 6.7689613e-20 -3.0287555)
(206.56396 0 -2.7599488)
(206.22684 6.2497149e-17 -2.5056051)
(205.89972 -2.9139317e-16 -2.2653944)
(205.58082 1.629692e-16 -2.0389132)
(205.26806 0 -1.8256952)
(204.95901 -1.4169764e-16 -1.6252392)
(204.65103 8.8021606e-17 -1.4370372)
(204.34154 1.231406e-16 -1.2605649)
(204.02834 3.370891e-20 -1.0952364)
(203.70932 -7.127192e-17 -0.94057626)
(203.38144 9.9677207e-17 -0.79652051)
(203.04085 -1.5484686e-16 -0.66258437)
(202.68532 8.6609487e-17 -0.53713023)
(202.31392 2.690633e-17 -0.42230686)
(201.92204 5.0222319e-17 -0.32280011)
(201.51339 0 -0.22406606)
(201.11342 -4.3748563e-17 -0.1232861)
(200.6585 2.0373683e-17 -0.036889507)
(220.04932 0 -26.947715)
(259.1409 9.7681426e-18 -8.9082004)
(242.15481 -3.0567033e-16 -26.754421)
(251.77836 2.4912793e-16 -10.800914)
(245.47196 2.5639378e-16 -24.636035)
(248.60544 -4.9962822e-16 -13.54765)
(245.98822 2.299954e-16 -22.087679)
(246.67742 2.3278157e-16 -16.17652)
(245.48217 -2.2067423e-16 -20.066684)
(245.1886 3.927834e-17 -17.906209)
(244.44854 0 -19.043612)
(243.85205 0 -18.607278)
(243.16817 -2.2341716e-17 -18.798917)
(242.47466 -1.6963184e-16 -18.766304)
(241.74901 1.403843e-16 -18.787174)
(240.99724 1.9045074e-17 -18.783047)
(240.21838 -3.6102401e-17 -18.771068)
(239.41318 3.080163e-16 -18.746166)
(238.58221 -2.2634605e-16 -18.707793)
(237.72633 2.4568234e-16 -18.65448)
(236.84656 -2.0302302e-16 -18.584935)
(235.94417 2.7528067e-17 -18.49783)
(235.02067 1.5638961e-16 -18.391863)
(234.07782 -1.9669554e-16 -18.265796)
(233.11762 0 -18.118452)
(232.14235 0 -17.948764)
(231.15453 0 -17.755799)
(230.15689 -1.9701152e-16 -17.538786)
(229.15239 1.8557968e-16 -17.297148)
(228.14415 -3.516703e-17 -17.030523)
(227.13543 0 -16.738802)
(226.12956 -2.8190683e-16 -16.422138)
(225.12993 2.3560739e-16 -16.080962)
(224.13989 -5.5731399e-17 -15.715993)
(223.16273 1.5760592e-16 -15.328243)
(222.20158 -4.8974085e-17 -14.918997)
(221.25942 -1.8576819e-16 -14.489811)
(220.33896 2.1915572e-16 -14.04248)
(219.44264 -1.6452716e-16 -13.579013)
(218.57257 7.7612318e-17 -13.101597)
(217.73053 -7.2821627e-17 -12.612557)
(216.91793 1.369019e-16 -12.114313)
(216.13582 -6.4144929e-17 -11.609337)
(215.38488 -2.4143466e-16 -11.100111)
(214.66545 5.0910144e-16 -10.589083)
(213.97755 -2.1203814e-16 -10.078629)
(213.32088 -1.49425e-16 -9.571022)
(212.6949 9.2900763e-17 -9.068401)
(212.09883 8.7394245e-17 -8.5727483)
(211.5317 -1.6348905e-16 -8.0858722)
(210.99238 1.5275437e-16 -7.6093946)
(210.47964 0 -7.1447454)
(209.99212 1.3370526e-16 -6.6931586)
(209.52844 -1.8728209e-16 -6.2556754)
(209.08715 5.8364049e-17 -5.833149)
(208.66682 5.4391925e-17 -5.4262525)
(208.26599 0 -5.03549)
(207.88322 0 -4.6612058)
(207.51707 0 -4.3035956)
(207.16614 0 -3.962725)
(206.82899 0 -3.6385299)
(206.50419 -7.1466195e-17 -3.3308313)
(206.19036 0 -3.0393704)
(205.88606 -5.5058931e-20 -2.763792)
(205.5898 2.3077679e-16 -2.5036529)
(205.29987 -2.1468472e-16 -2.2584457)
(205.0143 -9.9937887e-17 -2.0276122)
(204.73078 -1.8582037e-16 -1.810573)
(204.44672 2.5902254e-16 -1.6067532)
(204.15957 4.5816956e-20 -1.4155555)
(203.86718 7.4604813e-17 -1.2363345)
(203.56751 0 -1.0686375)
(203.25772 0 -0.9123682)
(202.93439 0 -0.76662906)
(202.59528 -1.1135977e-16 -0.62985571)
(202.23776 0 -0.50608142)
(201.85761 -9.6214635e-17 -0.39833393)
(201.46646 1.3414435e-16 -0.28246905)
(201.08126 8.3162448e-17 -0.17273022)
(200.60779 -1.9269741e-17 -0.1340805)
(220.23736 0 -30.610234)
(259.67339 0 -11.647793)
(242.16769 3.2158755e-16 -30.381866)
(252.08551 1.925932e-17 -13.719885)
(245.48475 -2.6912975e-16 -28.125575)
(248.71278 0 -16.643508)
(245.93198 1.6123167e-17 -25.35474)
(246.68092 -3.0555168e-17 -19.410442)
(245.30281 0 -23.182436)
(244.94885 1.9264882e-16 -21.152738)
(244.15655 -4.1711256e-16 -22.153796)
(243.48989 1.9751401e-16 -21.785844)
(242.74163 2.34454e-17 -21.919669)
(241.97832 0 -21.882818)
(241.18208 2.1036843e-17 -21.875708)
(240.3578 -3.3936042e-16 -21.845998)
(239.50516 7.4811109e-17 -21.803427)
(238.62519 2.5009983e-16 -21.744347)
(237.71886 2.3752329e-16 -21.66771)
(236.78748 -2.5619671e-16 -21.571927)
(235.83256 0 -21.45553)
(234.85594 -2.8747454e-16 -21.317069)
(233.8597 2.4407982e-16 -21.155151)
(232.84626 -2.0573585e-16 -20.968492)
(231.81829 1.9390678e-16 -20.755939)
(230.77876 -1.8377005e-16 -20.516498)
(229.73088 3.4667261e-16 -20.249393)
(228.67807 -1.6359896e-16 -19.954077)
(227.62395 1.5472495e-16 -19.630278)
(226.57225 -2.9170773e-16 -19.278017)
(225.52675 1.3729306e-16 -18.897637)
(224.49127 1.2966633e-16 -18.489812)
(223.46955 -2.4465168e-16 -18.055548)
(222.46518 5.6791653e-17 -17.596181)
(221.48157 -5.7708911e-19 -17.113371)
(220.52187 2.5453303e-16 -16.60906)
(219.5889 0 -16.08546)
(218.68512 1.9797013e-19 -15.545001)
(217.81261 0 -14.990288)
(216.973 -7.9452433e-17 -14.424056)
(216.16749 -1.4931986e-16 -13.849116)
(215.39687 7.0114271e-17 -13.268298)
(214.6615 0 -12.684411)
(213.96135 -6.1786543e-17 -12.100188)
(213.29604 2.8918968e-16 -11.518251)
(212.66487 -3.2467564e-16 -10.941071)
(212.06687 -3.0421928e-16 -10.370945)
(211.50084 2.8404641e-16 -9.809972)
(210.9654 -1.7726635e-16 -9.2600371)
(210.45906 0 -8.7228074)
(209.98018 0 -8.1997275)
(209.52711 7.2352232e-17 -7.6920216)
(209.09814 6.7522505e-17 -7.2007015)
(208.69158 1.2583848e-16 -6.7265746)
(208.30572 -5.8681588e-17 -6.2702568)
(207.93894 -1.0931042e-16 -5.832186)
(207.58961 -2.0384328e-16 -5.4126371)
(207.25617 -9.509806e-17 -5.0117351)
(206.93713 1.765613e-16 -4.6294699)
(206.63103 0 -4.2657156)
(206.3364 -7.6477163e-17 -3.9202309)
(206.05184 -1.4215565e-16 -3.5926772)
(205.77598 1.3208014e-16 -3.2826499)
(205.50743 6.1262843e-17 -2.9896657)
(205.24474 5.6980034e-17 -2.7131668)
(204.98634 0 -2.4525439)
(204.73038 1.9644065e-16 -2.20715)
(204.47469 1.8228256e-16 -1.9763327)
(204.21676 -2.5365411e-16 -1.7594496)
(203.95413 7.8451061e-17 -1.5558313)
(203.68466 -7.2717644e-17 -1.3648003)
(203.40635 -4.3935718e-20 -1.1859458)
(203.11666 2.499431e-16 -1.0190409)
(202.81274 -2.3165023e-16 -0.86273872)
(202.49209 5.3632013e-17 -0.7159748)
(202.1501 1.4918714e-16 -0.58456352)
(201.78421 -4.6086215e-17 -0.46807676)
(201.41337 -4.269124e-17 -0.33472539)
(201.04245 0 -0.22112641)
(200.55545 3.6564753e-17 -0.22612416)
(220.22583 3.889696e-16 -34.457858)
(260.01013 5.4134445e-19 -14.502985)
(241.95947 -3.5843821e-16 -34.155202)
(252.20294 0 -16.798847)
(245.22583 0 -31.686611)
(248.44236 -2.6720833e-16 -19.908454)
(245.57449 2.7052515e-16 -28.679135)
(246.14149 6.4141087e-17 -22.809001)
(244.87041 -2.4351992e-16 -26.403567)
(244.42491 2.3033121e-16 -24.548083)
(243.57008 -2.4619377e-16 -25.390368)
(242.8206 2.0692986e-16 -25.085968)
(241.99605 -4.9093201e-17 -25.160989)
(241.15138 -4.6557729e-17 -25.110053)
(240.27313 -1.7642024e-16 -25.069771)
(239.36532 1.6663298e-16 -25.006616)
(238.4283 -3.5586121e-16 -24.925427)
(237.46349 5.981874e-16 -24.823244)
(236.47244 -2.8263619e-16 -24.698615)
(235.45702 -2.6818391e-16 -24.54979)
(234.41945 2.5289733e-16 -24.375148)
(233.36225 -3.0123033e-17 -24.173146)
(232.28831 -2.2671454e-16 -23.942365)
(231.20083 2.1356344e-16 -23.681574)
(230.10334 2.5300165e-16 -23.389747)
(228.9996 -1.4265176e-16 -23.066119)
(227.89364 0 -22.710231)
(226.78965 2.5513447e-16 -22.321948)
(225.69193 -3.2045715e-16 -21.901506)
(224.60479 1.1274751e-16 -21.449515)
(223.53252 -2.8508865e-16 -20.966981)
(222.47928 2.0085937e-16 -20.4553)
(221.44902 -6.3294789e-17 -19.916245)
(220.44538 2.3784883e-16 -19.351938)
(219.47168 -2.2310662e-16 -18.764827)
(218.53079 -2.1028034e-16 -18.157629)
(217.62513 1.9709155e-16 -17.533283)
(216.75661 -4.622486e-17 -16.894898)
(215.92665 0 -16.245676)
(215.13613 8.1809608e-17 -15.588867)
(214.38544 -7.6352017e-17 -14.927695)
(213.6745 0 -14.265309)
(213.0028 1.3445428e-16 -13.604731)
(212.36946 -6.2899521e-17 -12.94881)
(211.77327 -1.7635614e-16 -12.300194)
(211.21275 5.5012162e-16 -11.661297)
(210.68621 -2.0598222e-16 -11.034292)
(210.19182 9.6068101e-17 -10.421093)
(209.7276 -2.6938733e-16 -9.8233569)
(209.29157 -1.8136073e-19 -9.2424877)
(208.88167 1.561985e-16 -8.6796454)
(208.49589 -1.4571607e-16 -8.1357564)
(208.13224 -6.7813423e-17 -7.6115307)
(207.78879 -6.3168393e-17 -7.1074771)
(207.46369 -1.1795166e-16 -6.6239214)
(207.15516 2.1905044e-16 -6.1610247)
(206.86151 0 -5.7188006)
(206.58115 9.4662699e-17 -5.2971318)
(206.31255 -3.5224925e-16 -4.8957858)
(206.05426 2.4516074e-16 -4.5144349)
(205.80487 7.5871683e-17 -4.1526543)
(205.56302 1.4095135e-16 -3.8099442)
(205.32741 1.3096546e-16 -3.4857567)
(205.09671 -1.2118138e-16 -3.1794821)
(204.86958 -1.1229777e-16 -2.8904539)
(204.64457 -3.1238887e-16 -2.617967)
(204.42001 -4.021822e-20 -2.3612946)
(204.19385 -8.9277903e-17 -2.1197172)
(203.96377 0 -1.8925248)
(203.72737 -2.2951735e-16 -1.6789859)
(203.48251 7.0775651e-17 -1.4784241)
(203.2272 0 -1.2904647)
(202.9593 1.2109203e-16 -1.1146373)
(202.67665 0 -0.94921074)
(202.37612 1.0345428e-16 -0.79405101)
(202.0512 -1.4336951e-16 -0.65626542)
(201.70208 1.3249215e-16 -0.53049622)
(201.35365 -8.1597921e-17 -0.38017063)
(200.99624 7.5364493e-17 -0.26649369)
(200.50095 0 -0.30887222)
(219.998 -4.0863217e-16 -38.497303)
(260.13556 3.6175965e-16 -17.490523)
(241.49481 -3.3253236e-16 -38.100122)
(252.04585 3.3008359e-16 -20.049958)
(244.67934 3.1667348e-16 -35.311899)
(247.95617 -1.7979705e-17 -23.365512)
(244.98735 -2.8348833e-16 -32.091752)
(245.48736 -2.6904194e-16 -26.399872)
(244.12359 2.8643893e-16 -29.742626)
(243.57296 0 -28.088404)
(242.6452 2.8581246e-17 -28.756857)
(241.80048 0 -28.504434)
(240.88703 -1.2856494e-16 -28.520375)
(239.94876 2.4274998e-16 -28.443931)
(238.97628 0 -28.362868)
(237.97316 0 -28.25613)
(236.94057 0 -28.125488)
(235.88054 3.9101078e-17 -27.96824)
(234.79538 0 -27.782617)
(233.6878 -2.4454227e-16 -27.566748)
(232.5609 3.2948484e-16 -27.318917)
(231.41816 1.246736e-16 -27.037597)
(230.26345 1.7678171e-16 -26.72147)
(229.10099 -2.7768188e-16 -26.369515)
(227.93525 -5.2324671e-17 -25.98104)
(226.77099 -2.4764503e-16 -25.555726)
(225.61307 1.8638494e-16 -25.093672)
(224.46647 -2.201469e-16 -24.595423)
(223.33612 8.2359712e-17 -24.061975)
(222.22684 7.7870862e-17 -23.494792)
(221.14324 0 -22.895788)
(220.0896 2.7706118e-16 -22.267301)
(219.0698 -2.6022671e-16 -21.612062)
(218.08723 0 -20.933136)
(217.14473 -2.3005863e-16 -20.23387)
(216.24456 2.154868e-16 -19.517817)
(215.38835 -1.0155751e-16 -18.788661)
(214.57712 1.9013284e-16 -18.050147)
(213.81128 -2.6716257e-16 -17.306)
(213.09068 1.2755528e-19 -16.559859)
(212.41464 -1.5610159e-16 -15.815212)
(211.78205 -7.3053823e-17 -15.075349)
(211.19138 -1.371171e-16 -14.343314)
(210.64082 2.5562385e-16 -13.621882)
(210.12829 -1.1928656e-16 -12.91353)
(209.65152 0 -12.220438)
(209.20816 -3.8367703e-19 -11.544482)
(208.79577 9.7047502e-17 -10.88724)
(208.41191 0 -10.250008)
(208.05416 8.4414392e-17 -9.6338145)
(207.72018 7.89308e-17 -9.0394386)
(207.40768 -7.3291188e-17 -8.4674335)
(207.11452 2.728679e-16 -7.9181467)
(206.83862 -2.5367322e-16 -7.3917429)
(206.57807 -1.179811e-16 -6.8882243)
(206.33105 -1.0960522e-16 -6.4074525)
(206.09589 1.0177419e-16 -5.9491659)
(205.87101 1.8879157e-16 -5.5129975)
(205.65494 -3.5020627e-16 -5.098491)
(205.44631 4.0587013e-16 -4.7051199)
(205.24379 -1.5038965e-16 -4.3322807)
(205.04612 1.3940194e-16 -3.9793212)
(204.85209 -1.2904423e-16 -3.6455603)
(204.6605 2.3899542e-16 -3.3302715)
(204.47012 -3.3177788e-16 -3.0326906)
(204.27965 2.0452724e-16 -2.7520288)
(204.08757 -8.0745541e-20 -2.4874918)
(203.89206 8.7425178e-17 -2.2382999)
(203.69097 0 -2.0036778)
(203.48199 0 -1.782849)
(203.26297 0 -1.5751732)
(203.03191 -1.2706007e-16 -1.3802736)
(202.78715 1.540962e-20 -1.197335)
(202.52722 0 -1.0244278)
(202.24809 0 -0.86269024)
(201.94165 9.1901182e-17 -0.71967748)
(201.61185 -1.6935787e-16 -0.5841839)
(201.28725 0 -0.41843098)
(200.94195 0 -0.30867535)
(200.44396 -1.3191894e-16 -0.38399197)
(219.51906 2.7585421e-17 -42.736733)
(260.0095 -7.8328302e-16 -20.628773)
(240.74542 3.4788917e-16 -42.183622)
(251.35485 -2.1697727e-17 -23.48402)
(243.82268 3.7324357e-16 -39.0591)
(247.12759 -3.5168638e-16 -27.046526)
(244.06944 0 -35.617025)
(244.44088 -3.1693323e-16 -30.179024)
(243.02631 2.3303164e-16 -33.194824)
(242.35039 2.2133401e-16 -31.767568)
(241.33617 -2.3892398e-16 -32.256375)
(240.38189 0 -32.03731)
(239.3649 1.9661574e-19 -31.992142)
(238.31915 0 -31.876449)
(237.23893 3.848967e-16 -31.743337)
(236.12783 -7.2710784e-16 -31.579443)
(234.98799 3.4327223e-16 -31.384674)
(233.82239 -4.054846e-17 -31.156387)
(232.63436 -3.8536242e-17 -30.892603)
(231.42772 3.6631658e-17 -30.591408)
(230.20678 -6.838696e-17 -30.251152)
(228.97621 -3.2399011e-16 -29.870487)
(227.74111 3.0492725e-16 -29.448439)
(226.50685 5.7480937e-17 -28.984469)
(225.27903 -2.7243817e-16 -28.478505)
(224.06339 -7.0275679e-19 -27.931006)
(222.86566 2.8934793e-16 -27.342961)
(221.69149 -1.8161278e-16 -26.715918)
(220.54626 -6.2489342e-19 -26.051961)
(219.43505 0 -25.353695)
(218.36243 0 -24.624201)
(217.33242 -7.1475087e-17 -23.866976)