/*--------------------------------*- C++ -*----------------------------------*\
| =========                 |                                                 |
| \\      /  F ield         | OpenFOAM: The Open Source CFD Toolbox           |
|  \\    /   O peration     | Version:  2512                                  |
|   \\  /    A nd           | Website:  www.openfoam.com                      |
|    \\/     M anipulation  |                                                 |
\*---------------------------------------------------------------------------*/
FoamFile
{
    version     2.0;
    format      ascii;
    arch        "LSB;label=32;scalar=64";
    class       volScalarField;
    location    "0.001";
    object      rho;
}
// * * * * * * * * * * * * * * * * * * * * * * * * * * * * * * * * * * * * * //

dimensions      [1 -3 0 0 0 0 0];

internalField   nonuniform List<scalar> 
100
(
0.999645
0.999645
0.999645
0.999645
0.999645
0.999645
0.999645
0.999645
0.999645
0.999645
0.999645
0.999645
0.999645
0.999645
0.999645
0.999645
0.999645
0.999645
0.999645
0.999645
0.999645
0.999645
0.999645
0.999645
0.999645
0.999645
0.999645
0.999645
0.999645
0.999645
0.999645
0.999645
0.999645
0.999645
0.999645
0.999645
0.999645
0.999645
0.999645
0.999645
0.999645
0.999645
0.999645
0.999644
0.998882
0.976924
0.883604
0.758067
0.6321
0.538501
0.435342
0.394825
0.360304
0.31439
0.274455
0.17857
0.126596
0.124956
0.124955
0.124955
0.124955
0.124955
0.124955
0.124955
0.124955
0.124955
0.124955
0.124955
0.124955
0.124955
0.124955
0.124955
0.124955
0.124955
0.124955
0.124955
0.124955
0.124955
0.124955
0.124955
0.124955
0.124955
0.124955
0.124955
0.124955
0.124955
0.124955
0.124955
0.124955
0.124955
0.124955
0.124955
0.124955
0.124955
0.124955
0.124955
0.124955
0.124955
0.124955
0.124955
)
;

boundaryField
{
    sides
    {
        type            calculated;
        value           nonuniform List<scalar> 2(0.124955 0.999645);
    }
    empty
    {
        type            empty;
    }
}


// ************************************************************************* //
