/*--------------------------------*- C++ -*----------------------------------*\
| =========                 |                                                 |
| \\      /  F ield         | OpenFOAM: The Open Source CFD Toolbox           |
|  \\    /   O peration     | Version:  2512                                  |
|   \\  /    A nd           | Website:  www.openfoam.com                      |
|    \\/     M anipulation  |                                                 |
\*---------------------------------------------------------------------------*/
FoamFile
{
    version     2.0;
    format      ascii;
    arch        "LSB;label=32;scalar=64";
    class       volVectorField;
    location    "0.001";
    object      U;
}
// * * * * * * * * * * * * * * * * * * * * * * * * * * * * * * * * * * * * * //

dimensions      [0 1 -1 0 0 0 0];

internalField   nonuniform List<vector> 
100
(
(-3.03353e-14 0 0)
(-5.38774e-14 0 0)
(9.58039e-16 0 0)
(7.73093e-14 0 0)
(6.49565e-15 0 0)
(-4.7517e-14 0 0)
(-2.3872e-14 0 0)
(-2.89636e-14 0 0)
(1.59419e-14 0 0)
(3.10319e-14 0 0)
(1.71585e-14 0 0)
(-2.97371e-14 0 0)
(-1.14697e-15 0 0)
(1.52021e-15 0 0)
(-2.83249e-14 0 0)
(-9.46268e-15 0 0)
(4.15152e-15 0 0)
(-8.83685e-15 0 0)
(1.75258e-14 0 0)
(-3.37779e-15 0 0)
(-8.83685e-15 0 0)
(-5.46843e-14 0 0)
(7.79457e-15 0 0)
(6.11309e-14 0 0)
(3.61118e-14 0 0)
(-1.88839e-14 0 0)
(4.34034e-14 0 0)
(3.31943e-14 0 0)
(-5.56734e-15 0 0)
(4.3762e-14 0 0)
(1.7229e-14 0 0)
(2.26297e-14 0 0)
(3.24243e-14 0 0)
(2.27654e-15 0 0)
(7.93071e-16 0 0)
(4.83767e-15 0 0)
(9.56269e-15 0 0)
(4.90557e-14 0 0)
(3.23249e-14 0 0)
(6.67411e-14 0 0)
(6.5925e-14 0 0)
(2.23434e-13 0 0)
(2.34087e-08 0 0)
(0.00057883 0 0)
(0.283428 0 0)
(8.5045 0 0)
(45.3487 0 0)
(102.396 0 0)
(157.372 0 0)
(220.781 0 0)
(284.934 0 0)
(304.28 0 0)
(296.885 0 0)
(309.427 0 0)
(291.715 0 0)
(146.35 0 0)
(5.7027 0 0)
(0.00251833 0 0)
(1.22518e-08 0 0)
(5.74837e-14 0 0)
(-2.85765e-14 0 0)
(-1.17128e-13 0 0)
(-8.38168e-14 0 0)
(-1.66314e-14 0 0)
(4.77253e-14 0 0)
(-1.15287e-14 0 0)
(-1.89056e-14 0 0)
(-2.56068e-14 0 0)
(2.11928e-14 0 0)
(9.56726e-14 0 0)
(7.32734e-14 0 0)
(2.4797e-14 0 0)
(-2.91234e-15 0 0)
(-5.01842e-15 0 0)
(3.63134e-14 0 0)
(1.39429e-13 0 0)
(8.72673e-14 0 0)
(-1.53355e-14 0 0)
(-9.62901e-14 0 0)
(1.98286e-14 0 0)
(8.76869e-14 0 0)
(4.69846e-14 0 0)
(-5.821e-14 0 0)
(-1.04606e-13 0 0)
(1.98286e-14 0 0)
(3.77926e-14 0 0)
(-1.95411e-14 0 0)
(-7.97468e-14 0 0)
(-9.57987e-14 0 0)
(-1.00894e-13 0 0)
(-4.66825e-14 0 0)
(3.86894e-14 0 0)
(2.38043e-14 0 0)
(-3.79806e-14 0 0)
(3.5114e-15 0 0)
(1.01312e-15 0 0)
(-7.17498e-14 0 0)
(-5.90859e-15 0 0)
(4.1059e-14 0 0)
(4.3902e-14 0 0)
)
;

boundaryField
{
    sides
    {
        type            zeroGradient;
    }
    empty
    {
        type            empty;
    }
}


// ************************************************************************* //
