/*--------------------------------*- C++ -*----------------------------------*\
| =========                 |                                                 |
| \\      /  F ield         | OpenFOAM: The Open Source CFD Toolbox           |
|  \\    /   O peration     | Version:  2512                                  |
|   \\  /    A nd           | Website:  www.openfoam.com                      |
|    \\/     M anipulation  |                                                 |
\*---------------------------------------------------------------------------*/
FoamFile
{
    version     2.0;
    format      ascii;
    arch        "LSB;label=32;scalar=64";
    class       volScalarField;
    location    "0.144";
    object      alphat;
}
// * * * * * * * * * * * * * * * * * * * * * * * * * * * * * * * * * * * * * //

dimensions      [1 -1 -1 0 0 0 0];

internalField   nonuniform List<scalar> 
16000
(
5.9613368e-07
1.2051799e-05
2.1663322e-05
2.5073332e-05
2.0071067e-05
2.7301391e-05
1.9373624e-05
2.6679783e-05
2.0731953e-05
2.8839819e-05
2.4122035e-05
2.8491185e-05
2.5874345e-05
2.6583997e-05
2.5652912e-05
2.5502854e-05
2.5228073e-05
2.515405e-05
2.5167644e-05
2.5291406e-05
2.5517132e-05
2.5843593e-05
2.6268108e-05
2.6790814e-05
2.7414013e-05
2.8144316e-05
2.8990579e-05
2.9966942e-05
3.109069e-05
3.2380491e-05
3.3856848e-05
3.5547003e-05
3.748613e-05
3.9717603e-05
4.2294853e-05
4.5281701e-05
4.8754279e-05
5.2803461e-05
5.7541821e-05
6.3109012e-05
6.9669177e-05
7.7415786e-05
8.6592874e-05
9.7499665e-05
0.0001104927
0.00012599993
0.00014455229
0.00016679726
0.00019352382
0.00022569426
0.0002644872
0.00031134988
0.00036805369
0.00043677203
0.00052017223
0.00062154106
0.00074494147
0.00089541589
0.001079258
0.0011791381
0.0011799685
0.0011806974
0.0011813272
0.0011818196
0.0011821716
0.0011823712
0.0011824094
0.0011822779
0.0011819649
0.001181451
0.0011807003
0.0011796436
0.0011782385
0.0011768203
0.0011755893
0.0011744474
0.0011733531
0.0011729225
0.0011720221
0.0011720492
5.3704482e-07
1.1390534e-05
2.1033452e-05
2.2752318e-05
1.8095762e-05
2.4446175e-05
1.7185632e-05
2.3322852e-05
1.8309647e-05
2.5425419e-05
2.1829257e-05
2.5657701e-05
2.3645503e-05
2.4064883e-05
2.3338852e-05
2.3133133e-05
2.2906066e-05
2.2828675e-05
2.2845363e-05
2.2959944e-05
2.3169961e-05
2.3473759e-05
2.3869263e-05
2.435671e-05
2.4937845e-05
2.5618836e-05
2.6407366e-05
2.731617e-05
2.8361592e-05
2.9561831e-05
3.0935983e-05
3.250896e-05
3.4313339e-05
3.6389303e-05
3.8786863e-05
4.156605e-05
4.4798948e-05
4.857099e-05
5.2987082e-05
5.8179464e-05
6.4305918e-05
7.1548701e-05
8.0137741e-05
9.0358423e-05
0.00010255333
0.00011712945
0.00013459352
0.0001555656
0.00018080308
0.00021123037
0.00024798016
0.00029244706
0.00034634052
0.00041176201
0.00049129321
0.0005881186
0.0007061794
0.00085036299
0.0010267535
0.0011786579
0.0011794866
0.0011801672
0.0011807582
0.0011812149
0.001181534
0.0011817035
0.0011817135
0.0011815555
0.0011812187
0.0011806841
0.0011799218
0.0011788718
0.0011774878
0.0011761329
0.0011749588
0.0011738514
0.0011728419
0.0011722284
0.0011717812
0.0011721039
4.6807252e-07
1.0887376e-05
1.9892819e-05
2.0794538e-05
1.6201144e-05
2.1530116e-05
1.5287136e-05
2.0251903e-05
1.6446524e-05
2.2273881e-05
1.9881742e-05
2.2812802e-05
2.1396175e-05
2.1525073e-05
2.0969041e-05
2.074207e-05
2.0553899e-05
2.0484751e-05
2.0506974e-05
2.0617293e-05
2.0814867e-05
2.1098459e-05
2.1466314e-05
2.1918998e-05
2.2457881e-05
2.308893e-05
2.3819054e-05
2.4659823e-05
2.5626493e-05
2.6736819e-05
2.8008963e-05
2.9466006e-05
3.1138389e-05
3.3063555e-05
3.5288496e-05
3.7869773e-05
4.08759e-05
4.4388068e-05
4.8504775e-05
5.3350903e-05
5.9079051e-05
6.5862897e-05
7.3920356e-05
8.3523979e-05
9.50053e-05
0.00010875443
0.00012525785
0.00014511278
0.00016905033
0.00019796426
0.0002329493
0.00027535661
0.00032684413
0.00038945382
0.0004656964
0.00055867074
0.00067221573
0.00081109616
0.00098123489
0.0011783322
0.0011791488
0.0011797657
0.0011802995
0.001180703
0.0011809726
0.001181096
0.0011810628
0.0011808642
0.0011804901
0.0011799219
0.0011791328
0.0011780744
0.0011767036
0.0011754201
0.0011743076
0.0011732584
0.0011722916
0.0011716217
0.0011713368
0.001171613
4.0385378e-07
1.0511214e-05
1.8884025e-05
1.9909662e-05
1.458973e-05
1.9007244e-05
1.3614542e-05
1.7679762e-05
1.4794066e-05
1.9603429e-05
1.8137142e-05
2.0303466e-05
1.9331847e-05
1.9249647e-05
1.8821602e-05
1.8595885e-05
1.8441581e-05
1.8385433e-05
1.8415199e-05
1.8524109e-05
1.8712135e-05
1.897861e-05
1.932217e-05
1.9743871e-05
2.024488e-05
2.0831123e-05
2.1509013e-05
2.2289209e-05
2.3185937e-05
2.421659e-05
2.5398726e-05
2.6753876e-05
2.8310759e-05
3.0104479e-05
3.2179496e-05
3.4589403e-05
3.7399663e-05
4.0688178e-05
4.4548407e-05
4.9098443e-05
5.448698e-05
6.0881281e-05
6.8489725e-05
7.7573587e-05
8.8456563e-05
0.00010151592
0.00011722229
0.00013615533
0.00015902614
0.00018670621
0.00022026174
0.00026101239
0.00031057862
0.0003709603
0.00044461874
0.00053459362
0.00064465294
0.0007794794
0.0009448961
0.0011481365
0.0011790227
0.0011795595
0.001180018
0.0011803516
0.0011805559
0.0011806185
0.0011805282
0.0011802757
0.0011798519
0.0011792387
0.0011784109
0.001177334
0.0011759657
0.0011747492
0.0011736965
0.0011727036
0.0011717632
0.0011710596
0.0011709054
0.0011708646
3.6631525e-07
1.0239787e-05
1.8037422e-05
1.9968982e-05
1.4414593e-05
1.6807215e-05
1.2153419e-05
1.5479878e-05
1.3379089e-05
1.7315071e-05
1.6596597e-05
1.8055757e-05
1.7416953e-05
1.7191617e-05
1.6857428e-05
1.6646974e-05
1.6519388e-05
1.647555e-05
1.6510409e-05
1.661642e-05
1.6793914e-05
1.7042969e-05
1.7362646e-05
1.7754534e-05
1.8219749e-05
1.876422e-05
1.9393987e-05
2.011899e-05
2.0952432e-05
2.1911294e-05
2.3012744e-05
2.4277035e-05
2.573147e-05
2.7409152e-05
2.935238e-05
3.1612195e-05
3.4251365e-05
3.7345173e-05
4.0983366e-05
4.5277638e-05
5.0373479e-05
5.6433444e-05
6.3658584e-05
7.2299695e-05
8.2674691e-05
9.5151e-05
0.00011018636
0.00012834625
0.00015032543
0.00017697839
0.00020934822
0.00024872984
0.00029671374
0.00035526655
0.000426811
0.00051434025
0.00062156649
0.00075310723
0.00091470803
0.0011134998
0.0011790698
0.0011795124
0.0011798798
0.0011801285
0.0011802532
0.0011802418
0.0011800819
0.0011797638
0.001179279
0.0011786106
0.001177733
0.0011766275
0.0011752686
0.0011741164
0.0011731227
0.001172185
0.0011712674
0.0011705573
0.0011704569
0.001170215
3.3012935e-07
1.00569e-05
1.7355695e-05
1.9653894e-05
1.4185877e-05
1.4897161e-05
1.1542205e-05
1.3664722e-05
1.2610124e-05
1.5444611e-05
1.525733e-05
1.6089219e-05
1.5671199e-05
1.5360452e-05
1.5084796e-05
1.4891358e-05
1.4780901e-05
1.4744852e-05
1.4781115e-05
1.4882318e-05
1.5048778e-05
1.5281166e-05
1.5578813e-05
1.5943591e-05
1.6376787e-05
1.6884245e-05
1.7471675e-05
1.8148517e-05
1.8926978e-05
1.982361e-05
2.0855393e-05
2.2041563e-05
2.340833e-05
2.498716e-05
2.6818621e-05
2.8951682e-05
3.1446891e-05
3.4377513e-05
3.7831012e-05
4.1913653e-05
4.6768081e-05
5.2553916e-05
5.9467659e-05
6.7750731e-05
7.7717502e-05
8.9729068e-05
0.00010423378
0.00012178725
0.00014307229
0.00016893305
0.00020039643
0.00023874139
0.00028553858
0.00034273334
0.00041272485
0.00049847761
0.00060366906
0.00073287632
0.00089180014
0.0010875142
0.001179284
0.0011796194
0.0011798811
0.0011800312
0.0011800637
0.0011799663
0.0011797259
0.0011793316
0.0011787756
0.0011780432
0.0011771066
0.0011759607
0.0011746249
0.0011735341
0.0011725976
0.0011717132
0.0011708213
0.0011701064
0.0011699632
0.0011696268
2.9184396e-07
9.9472546e-06
1.6822403e-05
1.8532805e-05
1.4003738e-05
1.3152966e-05
1.1526833e-05
1.2573673e-05
1.2069138e-05
1.3725592e-05
1.4042057e-05
1.4348658e-05
1.4045401e-05
1.3698561e-05
1.3457358e-05
1.3282397e-05
1.3185783e-05
1.315728e-05
1.3195495e-05
1.3293638e-05
1.3451601e-05
1.3670593e-05
1.3950183e-05
1.420787e-05
1.4603897e-05
1.5071088e-05
1.5614513e-05
1.6242792e-05
1.6966993e-05
1.7802874e-05
1.8767199e-05
1.987823e-05
2.1161186e-05
2.2645992e-05
2.4371636e-05
2.6385225e-05
2.8745247e-05
3.1523012e-05
3.4804573e-05
3.8983835e-05
4.364595e-05
4.9214917e-05
5.5885481e-05
6.389111e-05
7.3543917e-05
8.5202074e-05
9.9307921e-05
0.00011641114
0.00013718631
0.00016247338
0.00019328925
0.00023090477
0.00027687984
0.00033314899
0.00040210091
0.00048668718
0.00059056894
0.000718304
0.00087557458
0.0010694341
0.0011796432
0.0011798599
0.0011800039
0.0011800441
0.0011799736
0.0011797802
0.00117945
0.0011789709
0.001178335
0.0011775312
0.0011765298
0.0011753296
0.0011740425
0.0011730103
0.0011721283
0.0011712962
0.001170433
0.001169711
0.0011695059
0.0011691006
2.6296338e-07
9.8842412e-06
1.6360736e-05
1.680516e-05
1.2548415e-05
1.1453095e-05
9.7201959e-06
1.1168831e-05
1.0215171e-05
1.2365372e-05
1.2813206e-05
1.274734e-05
1.2493594e-05
1.2157628e-05
1.1945904e-05
1.1795011e-05
1.1715217e-05
1.169763e-05
1.1669696e-05
1.1750822e-05
1.1891383e-05
1.2091695e-05
1.2349996e-05
1.266615e-05
1.3045057e-05
1.3490407e-05
1.4007447e-05
1.4604771e-05
1.5292872e-05
1.6087077e-05
1.7004416e-05
1.806267e-05
1.9286635e-05
2.070531e-05
2.2356813e-05
2.4287124e-05
2.6553559e-05
2.9226287e-05
3.2390979e-05
3.6152012e-05
4.0636681e-05
4.6006194e-05
5.2455643e-05
6.0719946e-05
7.0153945e-05
8.1571153e-05
9.5411692e-05
0.00011222313
0.00013267577
0.00015761192
0.00018804499
0.00022524611
0.0002707743
0.00032656462
0.00039500929
0.00047906415
0.00058239424
0.00070956155
0.00086625718
0.0010595527
0.0011801268
0.0011802154
0.0011802318
0.0011801529
0.0011799707
0.0011796733
0.0011792461
0.0011786756
0.001177953
0.0011770709
0.001176004
0.0011747375
0.0011735287
0.0011725528
0.0011717218
0.0011709421
0.001170113
0.0011693689
0.0011690922
0.0011686311
2.3776153e-07
9.8439728e-06
1.5867182e-05
1.4714151e-05
1.0279405e-05
1.0203156e-05
8.0407249e-06
9.5924476e-06
9.7600974e-06
1.1081512e-05
1.1577582e-05
1.1267031e-05
1.103924e-05
1.0739373e-05
1.0556368e-05
1.0358167e-05
1.0269158e-05
1.0247428e-05
1.0285641e-05
1.038047e-05
1.0526811e-05
1.0728245e-05
1.098228e-05
1.1289677e-05
1.1655236e-05
1.2083547e-05
1.2579971e-05
1.3153172e-05
1.3813284e-05
1.4575195e-05
1.5456329e-05
1.6474256e-05
1.7653676e-05
1.9022974e-05
2.0619772e-05
2.2489417e-05
2.4688568e-05
2.7286841e-05
3.0369374e-05
3.403983e-05
3.8426121e-05
4.3687419e-05
5.0022262e-05
5.7661093e-05
6.6899227e-05
7.8104132e-05
9.2527588e-05
0.00010920358
0.0001295188
0.0001543242
0.00018463664
0.00022173592
0.0002671902
0.00032294665
0.0003914152
0.00047557354
0.00057911153
0.00070661945
0.00086382439
0.0010578522
0.0011807096
0.0011806628
0.0011805449
0.0011803401
0.0011800401
0.001179633
0.0011791036
0.0011784373
0.0011776234
0.0011766569
0.0011755274
0.0011742157
0.0011730887
0.0011721679
0.0011713844
0.0011706565
0.0011698713
0.0011691019
0.0011687403
0.0011682056
2.1902137e-07
9.7992662e-06
1.4044383e-05
1.2865403e-05
8.3105751e-06
9.0833122e-06
7.2889535e-06
8.639837e-06
9.0405682e-06
9.9154276e-06
1.0359165e-05
9.9255326e-06
9.7077148e-06
9.3577152e-06
9.165857e-06
9.0448599e-06
8.9917499e-06
8.9970509e-06
9.0533711e-06
9.1614688e-06
9.3153841e-06
9.5173406e-06
9.7689475e-06
1.0070311e-05
1.0426531e-05
1.0842684e-05
1.1324334e-05
1.1880374e-05
1.2520744e-05
1.325994e-05
1.4115842e-05
1.5106139e-05
1.6255672e-05
1.7592497e-05
1.9154079e-05
2.0985566e-05
2.3143441e-05
2.5697358e-05
2.8732969e-05
3.2354604e-05
3.6690521e-05
4.1899731e-05
4.8184721e-05
5.577644e-05
6.497334e-05
7.6145826e-05
8.9750696e-05
0.00010632449
0.00012770476
0.00015260088
0.00018305749
0.00022037136
0.00026613061
0.00032230669
0.00039134228
0.00047625557
0.00058078359
0.00070957141
0.00086841099
0.0010645175
0.0011813654
0.0011811785
0.0011809222
0.0011805874
0.0011801658
0.0011796454
0.0011790109
0.0011782466
0.0011773399
0.0011762847
0.0011750915
0.0011737805
0.0011727273
0.0011718603
0.0011711211
0.0011704432
0.0011697096
0.0011689226
0.0011684629
0.0011679295
1.9891064e-07
9.7487708e-06
1.1138969e-05
1.0580435e-05
6.8849517e-06
8.0905699e-06
6.6577867e-06
7.7677789e-06
8.4636979e-06
8.8539192e-06
9.1652832e-06
8.6150078e-06
8.3483654e-06
8.1053258e-06
7.9642322e-06
7.8850508e-06
7.8619732e-06
7.8915338e-06
7.9657053e-06
8.0839621e-06
8.244818e-06
8.450033e-06
8.7016426e-06
9.0004195e-06
9.3515963e-06
9.7607777e-06
1.0233879e-05
1.0780085e-05
1.1409352e-05
1.2135844e-05
1.2911409e-05
1.3875719e-05
1.4997694e-05
1.6305006e-05
1.7834938e-05
1.9632461e-05
2.1753955e-05
2.4269175e-05
2.7264429e-05
3.0845038e-05
3.514077e-05
4.0628582e-05
4.6928519e-05
5.4551227e-05
6.3798469e-05
7.5045017e-05
8.8761114e-05
0.00010549651
0.00012594446
0.00015096924
0.00018329235
0.00022114069
0.00026758901
0.0003246458
0.00039480234
0.00048113717
0.00058745827
0.0007184944
0.00088013401
0.0010797154
0.0011820668
0.0011817374
0.0011813415
0.0011808754
0.0011803307
0.001179696
0.0011789557
0.0011780931
0.0011770948
0.0011759521
0.0011746862
0.0011734323
0.0011724476
0.0011716332
0.0011709364
0.0011703042
0.0011696222
0.0011688331
0.0011682914
0.0011678275
1.8341102e-07
9.7005504e-06
8.7986952e-06
9.017697e-06
6.1719243e-06
7.1752221e-06
6.1176158e-06
7.0097834e-06
7.8776895e-06
7.866487e-06
7.87042e-06
7.4016925e-06
7.1848736e-06
7.0070646e-06
6.9093081e-06
6.8654059e-06
6.8702607e-06
6.9191477e-06
7.0087477e-06
7.1388173e-06
7.3078858e-06
7.518179e-06
7.7726985e-06
8.0727612e-06
8.4237495e-06
8.7937533e-06
9.257046e-06
9.7931137e-06
1.0411779e-05
1.112674e-05
1.1954477e-05
1.2916408e-05
1.4036728e-05
1.5343255e-05
1.6873726e-05
1.867371e-05
2.0800445e-05
2.3324815e-05
2.6335093e-05
2.9939107e-05
3.4270014e-05
3.9494233e-05
4.5815723e-05
5.3479154e-05
6.2791846e-05
7.4780288e-05
8.8737045e-05
0.0001057867
0.00012663564
0.00015217571
0.00018349671
0.00022403285
0.00027156155
0.00032997019
0.00040181524
0.00049025711
0.0005992002
0.00073348863
0.00089914382
0.0011036601
0.0011827866
0.0011823147
0.001181781
0.0011811846
0.0011805179
0.0011797698
0.0011789251
0.0011779659
0.0011768787
0.0011756585
0.0011743195
0.0011731714
0.0011722506
0.0011714881
0.0011708335
0.0011702415
0.0011696041
0.0011688339
0.0011682531
0.001167838
1.6949702e-07
9.6289384e-06
7.0095111e-06
7.9339867e-06
5.5111903e-06
6.3576972e-06
5.6540656e-06
6.3376781e-06
7.1773828e-06
6.7451739e-06
6.7022245e-06
6.3419662e-06
6.1711398e-06
6.0464592e-06
5.9861378e-06
5.9727324e-06
6.0015396e-06
6.0700346e-06
6.1750746e-06
6.3173858e-06
6.4964507e-06
6.714637e-06
6.9459946e-06
7.2450589e-06
7.5949936e-06
8.0007805e-06
8.4706688e-06
9.0134996e-06
9.6393322e-06
1.0362099e-05
1.1198475e-05
1.2169665e-05
1.3301339e-05
1.4621807e-05
1.6169562e-05
1.7991203e-05
2.0145448e-05
2.2704891e-05
2.5760586e-05
2.9424032e-05
3.3831999e-05
3.9154952e-05
4.5607617e-05
5.3441188e-05
6.2973012e-05
7.4597849e-05
8.8806153e-05
0.00010619096
0.00012860546
0.00015488193
0.00018712536
0.00022672812
0.00027803511
0.00033827654
0.00041239062
0.00050364301
0.00061606221
0.00075464125
0.00092557818
0.0011365594
0.0011834987
0.0011828868
0.0011822194
0.0011814963
0.0011807106
0.0011798521
0.0011789063
0.0011778548
0.0011766817
0.0011753983
0.0011740638
0.0011729958
0.0011721359
0.0011714244
0.0011708138
0.0011702562
0.0011696531
0.0011689265
0.0011683652
0.0011679755
1.5729195e-07
9.5026495e-06
5.6379592e-06
6.9532767e-06
4.9195328e-06
5.6303781e-06
5.2625175e-06
5.6517008e-06
6.2943212e-06
5.7727856e-06
5.6793055e-06
5.4173766e-06
5.2898095e-06
5.2096006e-06
5.1825399e-06
5.1967432e-06
5.2482137e-06
5.335532e-06
5.4566248e-06
5.5916864e-06
5.776456e-06
6.0005453e-06
6.2667477e-06
6.5786406e-06
6.9412827e-06
7.3600561e-06
7.8430997e-06
8.3999491e-06
9.0409115e-06
9.7801233e-06
1.0634439e-05
1.1625388e-05
1.2721587e-05
1.4056106e-05
1.562106e-05
1.7464049e-05
1.9645502e-05
2.2239781e-05
2.5340761e-05
2.9064183e-05
3.3551581e-05
3.9274624e-05
4.5917328e-05
5.3992538e-05
6.3828878e-05
7.583286e-05
9.0518893e-05
0.00010850676
0.0001305556
0.00015905439
0.00019248908
0.00023357352
0.00028408519
0.00034954474
0.00042651968
0.00052130131
0.00063807362
0.00078201274
0.0009595438
0.0011785946
0.0011841787
0.001183432
0.0011826373
0.0011817931
0.0011808936
0.0011799292
0.0011788867
0.0011777499
0.0011765
0.0011751511
0.0011739004
0.0011729053
0.0011721012
0.0011714399
0.0011708764
0.0011703485
0.0011697633
0.0011690991
0.0011686332
0.0011682705
1.465827e-07
9.287358e-06
4.6071342e-06
6.0778874e-06
4.3913788e-06
4.9857529e-06
4.9230657e-06
4.9053569e-06
5.4043813e-06
4.9083092e-06
4.7954184e-06
4.6145125e-06
4.5278186e-06
4.4859914e-06
4.4891863e-06
4.5290764e-06
4.6025181e-06
4.6902982e-06
4.8223806e-06
4.9896109e-06
5.1931789e-06
5.4350009e-06
5.7185978e-06
6.0477254e-06
6.4280416e-06
6.8651943e-06
7.367387e-06
7.9208556e-06
8.577189e-06
9.3327565e-06
1.0204516e-05
1.1214091e-05
1.2387955e-05
1.3759395e-05
1.5368167e-05
1.7263543e-05
1.9508813e-05
2.2181277e-05
2.5378697e-05
2.9222844e-05
3.3861932e-05
3.9482717e-05
4.6311106e-05
5.462542e-05
6.4768633e-05
7.7810655e-05
9.3096761e-05
0.0001118327
0.00013481543
0.00016302804
0.00019953914
0.00024242775
0.00029517718
0.00036007356
0.0004441562
0.0005431946
0.00066521219
0.00081560343
0.0010010721
0.0011856563
0.0011848049
0.0011839314
0.0011830177
0.0011820599
0.0011810532
0.0011799892
0.0011788555
0.0011776393
0.001176333
0.0011749611
0.0011738236
0.0011728962
0.0011721433
0.0011715304
0.0011710169
0.0011705175
0.0011699347
0.0011693353
0.0011690179
0.001168674
1.3726033e-07
8.9853032e-06
3.9602131e-06
5.3006423e-06
3.9223046e-06
4.4157568e-06
4.3838513e-06
4.2313643e-06
4.5467671e-06
4.1459286e-06
4.0396782e-06
3.9234057e-06
3.8750256e-06
3.867319e-06
3.8986163e-06
3.9485287e-06
4.0368337e-06
4.1590587e-06
4.314518e-06
4.5036611e-06
4.7283111e-06
4.9909071e-06
5.295394e-06
5.6458137e-06
6.0345847e-06
6.49044e-06
7.0118867e-06
7.6084501e-06
8.292122e-06
9.0772131e-06
9.9811782e-06
1.1026587e-05
1.2241074e-05
1.3659284e-05
1.5323799e-05
1.728581e-05
1.9612116e-05
2.2383792e-05
2.5702781e-05
2.9698269e-05
3.45246e-05
4.0378158e-05
4.7499801e-05
5.6180601e-05
6.6783205e-05
7.9752623e-05
9.6485905e-05
0.00011611422
0.00014020115
0.00016979045
0.0002061395
0.00025320947
0.0003085801
0.00037672312
0.00046059762
0.00056921158
0.00069736778
0.00085531138
0.001050067
0.0011863228
0.001185359
0.0011843697
0.0011833469
0.0011822846
0.0011811784
0.0011800223
0.001178805
0.0011775154
0.0011761645
0.0011748707
0.0011738238
0.0011729625
0.0011722578
0.0011716908
0.001171227
0.0011707589
0.0011701734
0.0011696253
0.0011694571
0.0011691996
1.2937125e-07
8.1085311e-06
3.4930053e-06
4.6063895e-06
3.5070324e-06
3.7463824e-06
3.9089238e-06
3.6140714e-06
3.7701061e-06
3.4843148e-06
3.4009637e-06
3.3361912e-06
3.3231737e-06
3.3466778e-06
3.3875802e-06
3.4711786e-06
3.5874995e-06
3.7353523e-06
3.9149776e-06
4.1275712e-06
4.3755138e-06
4.6615214e-06
4.9804191e-06
5.3522392e-06
5.7761321e-06
6.2587758e-06
6.8082157e-06
7.4343461e-06
8.14944e-06
8.9687535e-06
9.9103445e-06
1.0997801e-05
1.2260076e-05
1.373362e-05
1.5397482e-05
1.7421569e-05
1.9823639e-05
2.2689123e-05
2.6281727e-05
3.0456798e-05
3.5505467e-05
4.1633678e-05
4.909854e-05
5.820701e-05
6.9340529e-05
8.2971336e-05
9.9678842e-05
0.00012017419
0.00014662943
0.00017779211
0.00021609028
0.0002631808
0.00032414768
0.00039598906
0.00048443127
0.00059913076
0.00073429576
0.00090087719
0.0011062578
0.0011868979
0.0011858294
0.0011847356
0.0011836144
0.0011824581
0.0011812616
0.0011800208
0.0011787294
0.0011773822
0.0011760085
0.001174855
0.0011738934
0.0011730958
0.001172439
0.0011719152
0.0011714956
0.0011710609
0.0011704876
0.0011699906
0.0011699682
0.0011699214
1.2316185e-07
5.9142761e-06
3.0949096e-06
3.9780039e-06
3.1488479e-06
3.1281454e-06
3.4344086e-06
3.0542955e-06
3.1023137e-06
2.9195859e-06
2.8672745e-06
2.8451392e-06
2.8563842e-06
2.900929e-06
2.9820909e-06
3.0954305e-06
3.2389086e-06
3.4123976e-06
3.6169279e-06
3.854155e-06
4.1209186e-06
4.4299883e-06
4.7815334e-06
5.180308e-06
5.6320068e-06
6.1435529e-06
6.7233823e-06
7.3817996e-06
8.1314943e-06
8.9687069e-06
9.9455253e-06
1.1071853e-05
1.2377875e-05
1.3901412e-05
1.5689758e-05
1.780203e-05
2.0311302e-05
2.3309025e-05
2.6908639e-05
3.1250268e-05
3.6507857e-05
4.3204536e-05
5.1057009e-05
6.0648517e-05
7.2380544e-05
8.6752195e-05
0.00010437738
0.00012601188
0.00015398551
0.00018690056
0.00022736825
0.00027713769
0.0003416582
0.00041761164
0.00051114114
0.0006263492
0.00077557372
0.00095182452
0.0011691168
0.0011873752
0.0011862094
0.0011850226
0.0011838137
0.0011825748
0.0011812988
0.0011799821
0.0011786242
0.0011772391
0.00117595
0.0011749
0.0011740216
0.0011732857
0.0011726785
0.001172197
0.0011718119
0.0011714068
0.0011708718
0.0011704448
0.0011705266
0.0011705775
1.1829285e-07
4.4262863e-06
2.7385924e-06
3.3966905e-06
2.6919816e-06
2.6085419e-06
2.9336492e-06
2.5556997e-06
2.5472641e-06
2.4457858e-06
2.4285559e-06
2.4359183e-06
2.4799894e-06
2.5603288e-06
2.6724302e-06
2.8136958e-06
2.9833961e-06
3.1821382e-06
3.4083424e-06
3.6690441e-06
3.9654405e-06
4.300867e-06
4.6793919e-06
5.1059732e-06
5.5866018e-06
6.1285097e-06
6.7404883e-06
7.4221321e-06
8.2045996e-06
9.0965838e-06
1.01185e-05
1.1295709e-05
1.2660178e-05
1.4252042e-05
1.6121608e-05
1.8331555e-05
2.0959763e-05
2.4103098e-05
2.7882039e-05
3.2446038e-05
3.7980238e-05
4.4712871e-05
5.3319887e-05
6.3440576e-05
7.5828172e-05
9.1010695e-05
0.00010963822
0.0001325126
0.00016062254
0.00019693778
0.00023976227
0.00029244512
0.0003572851
0.00044122004
0.00054028046
0.00066232836
0.00082055985
0.0010074005
0.0011890136
0.0011877523
0.0011864981
0.0011852292
0.0011839427
0.0011826321
0.0011812888
0.0011799081
0.0011784996
0.0011771063
0.0011759548
0.0011749978
0.0011741971
0.0011735215
0.0011729653
0.0011725277
0.0011721691
0.0011717827
0.0011712968
0.0011709622
0.0011711279
0.0011712249
1.1314367e-07
3.9407196e-06
2.3594519e-06
2.8590251e-06
2.3193038e-06
2.1737098e-06
2.4168006e-06
2.119806e-06
2.0985315e-06
2.0596544e-06
2.0731484e-06
2.1165493e-06
2.1977842e-06
2.3097373e-06
2.449707e-06
2.6166926e-06
2.8109768e-06
3.0315592e-06
3.2840268e-06
3.5696852e-06
3.8914989e-06
4.2530697e-06
4.6587127e-06
5.1135908e-06
5.6239137e-06
6.1971883e-06
6.8349705e-06
7.5603017e-06
8.381866e-06
9.3167765e-06
1.0386565e-05
1.1618112e-05
1.3045225e-05
1.4710394e-05
1.6667084e-05
1.8982209e-05
2.1738811e-05
2.5039771e-05
2.9012996e-05
3.381653e-05
3.9646507e-05
4.7083677e-05
5.5822345e-05
6.6507063e-05
7.9593171e-05
9.5639066e-05
0.00011533271
0.00013952256
0.00017082321
0.00020767335
0.00025299288
0.00030876076
0.00037741524
0.00046631099
0.0005712475
0.00070057513
0.00086834536
0.0010665048
0.001189359
0.0011880299
0.0011866994
0.0011853592
0.0011840043
0.001182631
0.0011812329
0.0011798025
0.0011783596
0.0011770677
0.00117601
0.0011751366
0.0011744086
0.0011737928
0.0011732856
0.0011728937
0.0011725592
0.001172186
0.001171749
0.0011715174
0.0011717552
0.0011718555
1.0971718e-07
3.4308009e-06
2.0338954e-06
2.3121517e-06
2.0141561e-06
1.8027986e-06
1.938201e-06
1.7526417e-06
1.7488299e-06
1.7600212e-06
1.8046934e-06
1.8866649e-06
1.999143e-06
2.1380831e-06
2.3024128e-06
2.4923733e-06
2.7078723e-06
2.9525806e-06
3.2283335e-06
3.5378546e-06
3.8844061e-06
4.2718089e-06
4.704546e-06
5.1879305e-06
5.7283412e-06
6.3292062e-06
7.0064141e-06
7.768786e-06
8.6306227e-06
9.6098765e-06
1.0729339e-05
1.2017486e-05
1.3510155e-05
1.5252333e-05
1.7300571e-05
1.9725959e-05
2.2617322e-05
2.6083657e-05
3.0261027e-05
3.5316874e-05
4.1731444e-05
4.9275623e-05
5.8487137e-05
6.9757615e-05
8.3567174e-05
0.00010050721
0.00012130518
0.00014685879
0.00017988132
0.00021881203
0.00026670532
0.0003256551
0.0003982492
0.00049221479
0.00060323174
0.00074010904
0.00091771544
0.0011276578
0.0011896075
0.0011882166
0.0011868211
0.0011854205
0.0011840073
0.0011825779
0.0011811334
0.001179682
0.0011782582
0.00117709
0.0011761132
0.0011753069
0.0011746425
0.0011740914
0.0011736263
0.0011732779
0.0011729677
0.0011726113
0.0011722257
0.0011720911
0.0011723853
0.0011724637
1.0828265e-07
2.8986957e-06
1.7526653e-06
1.7856427e-06
1.7357278e-06
1.4870391e-06
1.5487058e-06
1.4618808e-06
1.4900443e-06
1.5368877e-06
1.6204361e-06
1.7327994e-06
1.8704233e-06
2.0317149e-06
2.2169518e-06
2.4273027e-06
2.66374e-06
2.9297871e-06
3.2275773e-06
3.5601012e-06
3.9307951e-06
4.3436224e-06
4.8031903e-06
5.3149308e-06
5.885351e-06
6.5223743e-06
7.2357812e-06
8.0377411e-06
8.9332057e-06
9.9573723e-06
1.112725e-05
1.2473006e-05
1.4032653e-05
1.5853894e-05
1.7996418e-05
2.0618495e-05
2.3670358e-05
2.7332711e-05
3.1750488e-05
3.7102412e-05
4.3608534e-05
5.1539392e-05
6.1229149e-05
7.30891e-05
8.762579e-05
0.00010546357
0.00012737069
0.00015564193
0.00018898992
0.00023000136
0.0002804666
0.00034259761
0.00042309765
0.00051810437
0.00063522169
0.00077969703
0.00096713055
0.0011889792
0.0011897744
0.0011883272
0.0011868757
0.0011854234
0.0011839637
0.0011824895
0.0011809989
0.0011795238
0.0011782351
0.0011771594
0.0011762598
0.0011755077
0.0011748867
0.0011744018
0.0011739783
0.0011736652
0.0011733795
0.0011730498
0.001172724
0.0011726662
0.0011729845
0.0011730322
1.0990871e-07
2.3676896e-06
1.5189318e-06
1.3813962e-06
1.4550558e-06
1.2235188e-06
1.2643046e-06
1.2494903e-06
1.3107201e-06
1.3919018e-06
1.5036243e-06
1.6389247e-06
1.7964874e-06
1.976441e-06
2.1800093e-06
2.4089414e-06
2.6650092e-06
2.9512504e-06
3.2702078e-06
3.6250041e-06
4.0191768e-06
4.4567818e-06
4.9425273e-06
5.4819643e-06
6.081751e-06
6.7500088e-06
7.4967984e-06
8.3347144e-06
9.2796232e-06
1.0351598e-05
1.1576014e-05
1.2985009e-05
1.461907e-05
1.6529087e-05
1.877874e-05
2.1447431e-05
2.4633915e-05
2.8461001e-05
3.308058e-05
3.8680596e-05
4.5493089e-05
5.3803393e-05
6.3960366e-05
7.6396113e-05
9.1641357e-05
0.00011126388
0.00013441586
0.00016285987
0.00019782939
0.00024084819
0.00029379685
0.0003623702
0.00044329508
0.00054303327
0.00066604993
0.00082583894
0.0010147679
0.0011913956
0.0011898772
0.001188381
0.0011868824
0.0011853834
0.0011838824
0.0011823802
0.0011808822
0.0011794272
0.0011782507
0.0011772609
0.0011764356
0.001175744
0.0011751664
0.0011746976
0.0011743342
0.0011740461
0.0011737816
0.001173486
0.0011732277
0.0011732344
0.0011735535
0.0011735749
1.158137e-07
1.8732821e-06
1.3313212e-06
1.0868509e-06
1.3019641e-06
1.0039393e-06
1.0711227e-06
1.1085195e-06
1.1962751e-06
1.3046089e-06
1.4367393e-06
1.5896306e-06
1.763688e-06
1.960051e-06
2.1804342e-06
2.4268453e-06
2.7015693e-06
3.0069757e-06
3.3461684e-06
3.722239e-06
4.1387997e-06
4.599991e-06
5.1106234e-06
5.6763773e-06
6.3040769e-06
7.0020612e-06
7.7806827e-06
8.6529877e-06
9.6354638e-06
1.0749062e-05
1.2020295e-05
1.3482826e-05
1.51791e-05
1.7162501e-05
1.9499841e-05
2.2274451e-05
2.5589871e-05
2.9574385e-05
3.4386579e-05
4.0222187e-05
4.764564e-05
5.6378728e-05
6.7051624e-05
8.0117405e-05
9.6132887e-05
0.00011578392
0.00013991602
0.00016957201
0.00020603501
0.0002532415
0.00030888058
0.00037738856
0.0004618004
0.00056588483
0.00070110136
0.00086090389
0.0010583887
0.0011914764
0.0011899271
0.0011883954
0.0011868631
0.0011853278
0.0011837863
0.0011822438
0.0011807334
0.0011794038
0.0011782994
0.0011773791
0.0011766134
0.0011759749
0.0011754479
0.0011750109
0.0011746803
0.0011744144
0.0011741678
0.0011739085
0.0011737176
0.0011737786
0.0011740798
0.0011740591
1.2673098e-07
1.4987666e-06
1.1727287e-06
9.4033848e-07
9.5477285e-07
8.8011425e-07
9.4258514e-07
1.0222332e-06
1.1301735e-06
1.2574819e-06
1.4049707e-06
1.5724384e-06
1.7611089e-06
1.9725038e-06
2.2084798e-06
2.4711098e-06
2.7627139e-06
3.0858788e-06
3.4435041e-06
3.8388558e-06
4.2756446e-06
4.7581323e-06
5.2912805e-06
5.8809633e-06
6.5342617e-06
7.25727e-06
8.064476e-06
8.9677234e-06
9.9930491e-06
1.1148271e-05
1.246723e-05
1.3985251e-05
1.5746835e-05
1.7807874e-05
2.0238263e-05
2.3125054e-05
2.6576316e-05
3.0725842e-05
3.5738903e-05
4.1819366e-05
4.9218461e-05
5.8245593e-05
6.9281484e-05
8.2792516e-05
9.935509e-05
0.0001196783
0.00014592381
0.00017683174
0.00021482497
0.00026156068
0.00031908793
0.00038994788
0.00047729303
0.00059060328
0.00072460097
0.00089015667
0.0010949284
0.001191524
0.0011899452
0.0011883836
0.0011868277
0.0011852739
0.0011837189
0.0011821684
0.0011806665
0.0011794292
0.0011783865
0.0011775177
0.0011767946
0.0011761977
0.0011757312
0.0011753099
0.0011750079
0.0011747601
0.0011745317
0.0011743091
0.0011741754
0.0011742725
0.0011745512
0.0011745125
1.4864735e-07
1.5084202e-06
1.012288e-06
7.1829937e-07
7.7922061e-07
7.8619939e-07
8.699214e-07
9.7196744e-07
1.0959919e-06
1.2377584e-06
1.3984412e-06
1.5789464e-06
1.7807742e-06
2.0055572e-06
2.2551805e-06
2.5317458e-06
2.8376068e-06
3.1753991e-06
3.5480827e-06
3.9589949e-06
4.4119234e-06
4.9112102e-06
5.4618997e-06
6.0699523e-06
6.7425462e-06
7.4884908e-06
8.3187746e-06
9.2472657e-06
1.0291599e-05
1.1474232e-05
1.2823714e-05
1.4376278e-05
1.6177626e-05
1.8285178e-05
2.0770705e-05
2.3723559e-05
2.7254596e-05
3.1500927e-05
3.6631775e-05
4.2855643e-05
5.0429292e-05
6.0096265e-05
7.1478611e-05
8.5409267e-05
0.00010248158
0.00012342518
0.00014914027
0.00018073815
0.00021959205
0.00026739863
0.0003262638
0.00040248031
0.00049257206
0.0006037319
0.00074103107
0.00091081127
0.0011210073
0.0011915819
0.0011899721
0.0011883781
0.0011867936
0.0011852159
0.0011836456
0.0011820997
0.0011806687
0.0011794945
0.0011785054
0.0011776807
0.001176993
0.0011764265
0.0011759613
0.0011755947
0.0011753065
0.0011750743
0.0011748652
0.0011746778
0.0011745835
0.0011746835
0.001174919
0.0011748885
1.4497408e-07
9.2280406e-07
8.2887432e-07
6.1147208e-07
6.6886801e-07
7.2916572e-07
8.311386e-07
9.4975603e-07
1.0866826e-06
1.2409058e-06
1.413677e-06
1.606189e-06
1.8199708e-06
2.0567233e-06
2.3183727e-06
2.6070783e-06
2.925261e-06
3.2755919e-06
3.6611675e-06
4.0853837e-06
4.5521114e-06
5.065777e-06
5.6315116e-06
6.2553658e-06
6.9446177e-06
7.7081935e-06
8.5572265e-06
9.5057792e-06
1.0580388e-05
1.1790476e-05
1.3171119e-05
1.4759469e-05
1.6602324e-05
1.8758423e-05
2.1301121e-05
2.4321682e-05
2.7933257e-05
3.2275763e-05
3.7521856e-05
4.3884274e-05
5.1624833e-05
6.1065413e-05
7.2601479e-05
8.6720954e-05
0.00010402389
0.00012525025
0.00015131316
0.00018494958
0.00022462403
0.00027343226
0.00033352737
0.00040758022
0.000498915
0.00061167763
0.00075105151
0.00092353364