/*--------------------------------*- C++ -*----------------------------------*\
| =========                 |                                                 |
| \\      /  F ield         | OpenFOAM: The Open Source CFD Toolbox           |
|  \\    /   O peration     | Version:  2512                                  |
|   \\  /    A nd           | Website:  www.openfoam.com                      |
|    \\/     M anipulation  |                                                 |
\*---------------------------------------------------------------------------*/
FoamFile
{
    version     2.0;
    format      ascii;
    arch        "LSB;label=32;scalar=64";
    class       volScalarField;
    location    "0.144";
    object      k;
}
// * * * * * * * * * * * * * * * * * * * * * * * * * * * * * * * * * * * * * //

dimensions      [0 2 -2 0 0 0 0];

internalField   nonuniform List<scalar> 
16000
(
0.059590002
0.021397957
0.022418943
0.016524398
0.01399762
0.012673807
0.011884529
0.011410801
0.011094058
0.010878979
0.010720468
0.010602397
0.010510141
0.010437084
0.010378285
0.010330798
0.010291975
0.010260063
0.010234072
0.01021258
0.010195156
0.010180858
0.010169387
0.010160254
0.010153118
0.010147685
0.010143771
0.010141188
0.010139803
0.010139482
0.010140103
0.010141562
0.010143776
0.010146674
0.010150197
0.010154285
0.01015888
0.010163925
0.010169361
0.010175132
0.010181176
0.010187422
0.010193806
0.01020026
0.010206711
0.010213087
0.010219328
0.010225385
0.010231218
0.010236787
0.010242055
0.01024698
0.010251519
0.010255629
0.010259271
0.010262408
0.010265002
0.01026701
0.01026838
0.010269051
0.010268943
0.010267953
0.01026598
0.010262888
0.010258511
0.010252687
0.010245291
0.010236215
0.010225294
0.010212234
0.010196499
0.010177055
0.01015331
0.010130491
0.010111767
0.010095647
0.010081865
0.01008226
0.010069434
0.010094429
0.055346965
0.020044312
0.020959043
0.015976389
0.013654847
0.012473759
0.011723132
0.011298677
0.010993887
0.010796305
0.01064778
0.010538452
0.010452577
0.010384986
0.010330633
0.010286991
0.010251532
0.010222479
0.010199109
0.010179898
0.010164596
0.010152208
0.010142504
0.010135016
0.010129429
0.01012544
0.010122882
0.010121571
0.010121377
0.010122178
0.010123852
0.010126297
0.010129427
0.010133172
0.010137468
0.01014226
0.010147488
0.010153095
0.010159023
0.010165218
0.010171621
0.010178163
0.01018478
0.010191411
0.010197985
0.010204432
0.010210692
0.010216718
0.010222473
0.010227921
0.010233031
0.010237767
0.010242093
0.01024597
0.01024936
0.010252232
0.01025455
0.010256276
0.010257361
0.010257748
0.010257365
0.010256118
0.010253911
0.010250614
0.010246063
0.010240085
0.010232541
0.010223324
0.010212282
0.010199136
0.010183437
0.0101643
0.01014107
0.0101194
0.010101694
0.010086283
0.010074218
0.010070607
0.010068202
0.010095019
0.049674328
0.019078297
0.019616196
0.01541512
0.013303895
0.012247936
0.011555673
0.0111725
0.010891729
0.010712238
0.01057483
0.010474674
0.010395676
0.010333848
0.010284261
0.010244693
0.010212834
0.01018683
0.010166263
0.010149487
0.010136449
0.010126101
0.010118277
0.010112533
0.010108582
0.010106121
0.010104994
0.010105024
0.010106083
0.010108058
0.01011083
0.010114298
0.010118373
0.010122984
0.010128068
0.010133565
0.010139418
0.01014557
0.010151962
0.010158541
0.01016525
0.010172024
0.010178802
0.010185523
0.010192125
0.01019854
0.01020471
0.010210591
0.010216148
0.010221354
0.01022618
0.0102306
0.010234583
0.010238095
0.010241104
0.010243581
0.010245495
0.010246812
0.010247486
0.010247463
0.010246677
0.010245044
0.010242472
0.010238839
0.010233983
0.010227727
0.010219916
0.010210441
0.010199166
0.010185818
0.010169999
0.010151001
0.010128221
0.01010786
0.010091276
0.01007699
0.010065825
0.010060768
0.010063145
0.010086274
0.044003488
0.018422135
0.018473624
0.014912002
0.012986368
0.012044221
0.011402748
0.011058354
0.01079812
0.010635076
0.010508268
0.010416586
0.010344148
0.010287773
0.01024274
0.010207053
0.010178671
0.010155592
0.010137747
0.010123328
0.010112495
0.010104138
0.010098157
0.010094117
0.010091771
0.010090808
0.010091084
0.010092427
0.010094711
0.010097826
0.010101659
0.010106105
0.010111078
0.0101165
0.010122307
0.010128438
0.010134837
0.010141446
0.010148207
0.010155066
0.010161972
0.010168862
0.010175679
0.010182366
0.010188868
0.010195121
0.010201072
0.010206678
0.01021191
0.010216746
0.010221165
0.010225147
0.010228669
0.010231703
0.010234221
0.010236197
0.010237606
0.010238416
0.010238587
0.010238066
0.010236793
0.01023469
0.010231673
0.010227626
0.010222391
0.010215785
0.010207641
0.010197843
0.010186271
0.010172662
0.010156649
0.010137738
0.010115337
0.010096305
0.010080917
0.01006781
0.010057204
0.010051761
0.010057522
0.010073477
0.040910467
0.018032155
0.017542584
0.014446474
0.012690584
0.011851703
0.011259351
0.010950679
0.01071087
0.010563244
0.010446841
0.01036324
0.010297226
0.010246147
0.010205582
0.010173683
0.010148742
0.010128541
0.010113404
0.010101327
0.010092694
0.010086334
0.010082209
0.010079877
0.010079137
0.010079685
0.010081362
0.010084018
0.01008752
0.010091761
0.010096631
0.010102025
0.010107851
0.010114032
0.010120499
0.010127191
0.01013405
0.01014102
0.010148044
0.010155069
0.010162047
0.010168924
0.010175644
0.010182156
0.010188414
0.01019436
0.010199946
0.010205134
0.0102099
0.010214228
0.010218104
0.010221518
0.010224451
0.010226884
0.010228792
0.010230154
0.010230948
0.010231148
0.010230715
0.010229601
0.010227747
0.010225084
0.010221532
0.010216983
0.010211284
0.01020425
0.010195699
0.010185505
0.010173562
0.010159629
0.010143333
0.010124432
0.010102584
0.010084904
0.010070761
0.010058832
0.010048781
0.010043486
0.010050978
0.010062142
0.037732466
0.017869612
0.016838463
0.01401991
0.012418719
0.011672649
0.011126888
0.010850997
0.010630825
0.010497393
0.010391095
0.010315111
0.010255313
0.010209341
0.010173128
0.010144903
0.010123356
0.01010598
0.010093529
0.01008379
0.010077345
0.010072994
0.010070761
0.010070127
0.010070975
0.010073051
0.010076106
0.010080059
0.010084756
0.010090089
0.01009595
0.010102231
0.010108841
0.010115695
0.010122727
0.01012987
0.010137069
0.010144268
0.010151414
0.010158458
0.010165355
0.010172057
0.010178518
0.010184693
0.010190543
0.010196021
0.010201086
0.010205704
0.010209858
0.010213538
0.010216738
0.010219454
0.010221677
0.010223393
0.010224584
0.01022523
0.010225313
0.01022481
0.010223687
0.010221897
0.010219383
0.010216083
0.010211921
0.010206797
0.010200564
0.010193036
0.01018402
0.010173371
0.010160995
0.010146689
0.010130052
0.010111052
0.010090036
0.010073732
0.010060873
0.010050112
0.010040706
0.010035736
0.01004322
0.010051154
0.034095442
0.017879943
0.016337556
0.013628528
0.012168153
0.011506352
0.011005007
0.010759039
0.010557809
0.010437394
0.010340882
0.010272138
0.010218384
0.010177387
0.010145461
0.010120843
0.010102681
0.010088124
0.010078352
0.010071012
0.010066735
0.010064458
0.010064249
0.010065275
0.010067636
0.010071191
0.010075665
0.010080893
0.010086749
0.010093122
0.010099905
0.01010699
0.010114283
0.010121697
0.010129162
0.010136615
0.010143999
0.010151263
0.010158359
0.010165242
0.010171874
0.010178218
0.010184236
0.010189891
0.010195154
0.010199992
0.010204368
0.010208259
0.010211651
0.010214543
0.010216934
0.010218829
0.010220226
0.010221116
0.010221487
0.010221321
0.010220604
0.010219315
0.010217422
0.010214882
0.010211639
0.010207632
0.010202795
0.01019703
0.0101902
0.010182119
0.010172585
0.010161432
0.010148568
0.010133846
0.010116846
0.010097593
0.010077857
0.010062944
0.010051373
0.010041771
0.010033116
0.010028541
0.010035485
0.010040959
0.031370952
0.017993653
0.015915531
0.013270027
0.011937245
0.011352651
0.01089315
0.010674705
0.010491469
0.010383187
0.010296203
0.010234432
0.010186602
0.010150505
0.010122846
0.010101805
0.010087024
0.010075334
0.010068169
0.010063447
0.010061189
0.010061216
0.010062457
0.01006541
0.010069511
0.010074553
0.010080378
0.010086833
0.01009378
0.010101107
0.010108706
0.01011647
0.010124302
0.010132116
0.010139841
0.010147415
0.010154787
0.01016191
0.010168744
0.010175253
0.010181409
0.010187183
0.010192552
0.01019749
0.010201977
0.010205994
0.010209514
0.010212521
0.010215007
0.010216977
0.010218437
0.010219397
0.010219862
0.010219831
0.010219294
0.010218236
0.010216643
0.010214498
0.010211771
0.010208419
0.010204389
0.010199621
0.010194053
0.010187595
0.010180115
0.010171433
0.01016134
0.010149649
0.010136251
0.010121067
0.010103743
0.010084102
0.01006614
0.010052632
0.010042336
0.01003389
0.010026104
0.010021889
0.010027837
0.01003134
0.028934427
0.018147554
0.015394776
0.012941311
0.011724707
0.011210685
0.010790852
0.010597552
0.010432142
0.010335162
0.010257407
0.010202387
0.010160365
0.010129106
0.010105706
0.010088238
0.010076746
0.010068095
0.01006317
0.010061227
0.010059759
0.010063228
0.010066672
0.010071325
0.010076997
0.010083482
0.0100906
0.010098193
0.010106121
0.010114268
0.010122526
0.010130789
0.010138964
0.010146962
0.010154719
0.010162178
0.010169292
0.010176026
0.01018235
0.010188241
0.010193681
0.010198658
0.010203159
0.010207174
0.010210694
0.010213712
0.010216214
0.010218189
0.010219636
0.010220563
0.010220984
0.010220912
0.010220358
0.010219326
0.010217809
0.010215793
0.010213266
0.010210209
0.010206596
0.010202386
0.010197524
0.010191952
0.010185611
0.010178418
0.010170248
0.010160927
0.010150243
0.010137992
0.010124036
0.010108334
0.010090769
0.010071093
0.01005499
0.010042899
0.010033845
0.010026542
0.01001975
0.010015895
0.010020536
0.010022207
0.027164948
0.018273669
0.014722818
0.012639726
0.011530746
0.011081401
0.01069944
0.010528526
0.010380388
0.010293754
0.010224916
0.010176467
0.010140145
0.010113676
0.010094532
0.010080693
0.010072037
0.010067002
0.010062773
0.010065428
0.010067977
0.010071603
0.010076921
0.010083298
0.010090507
0.010098345
0.010106636
0.010115221
0.010123957
0.010132724
0.010141415
0.010149932
0.010158183
0.010166089
0.01017359
0.01018064
0.010187206
0.010193263
0.010198798
0.010203802
0.010208274
0.010212215
0.010215629
0.010218518
0.010220889
0.010222743
0.01022408
0.010224894
0.010225188
0.010224975
0.010224269
0.01022309
0.01022145
0.010219358
0.010216808
0.010213789
0.010210285
0.010206279
0.010201746
0.010196645
0.010190921
0.010184517
0.010177375
0.010169418
0.010160528
0.01015054
0.010139245
0.010126423
0.01011191
0.010095648
0.010077842
0.010058849
0.010044496
0.010033819
0.010025962
0.010019773
0.010014077
0.010010615
0.010013768
0.010014141
0.025119904
0.018360794
0.014172858
0.012363653
0.01135606
0.010964438
0.010618919
0.010467882
0.010336231
0.010259339
0.010199131
0.010157144
0.010126451
0.010104761
0.010089869
0.010079859
0.01007216
0.010072755
0.010073701
0.010075991
0.010080549
0.010086642
0.010093786
0.010101783
0.010110401
0.010119435
0.010128707
0.010138057
0.010147343
0.010156445
0.010165262
0.010173704
0.010181692
0.010189158
0.010196057
0.010202358
0.010208044
0.010213109
0.010217558
0.010221399
0.010224649
0.010227325
0.010229446
0.010231028
0.010232088
0.010232639
0.010232689
0.010232239
0.010231296
0.010229869
0.010227978
0.010225641
0.010222872
0.010219683
0.01021607
0.010212021
0.010207519
0.010202544
0.010197072
0.010191063
0.010184463
0.010177211
0.010169253
0.010160515
0.010150888
0.010140218
0.010128299
0.010114904
0.010099858
0.010083059
0.010064874
0.010047426
0.01003474
0.010025452
0.010018744
0.010013615
0.010009067
0.010006112
0.010007872
0.010007627
0.023560176
0.018435022
0.013679584
0.012113205
0.011200514
0.010859633
0.010548752
0.010415902
0.010300112
0.010232412
0.010180573
0.010144995
0.010119895
0.010103007
0.010092338
0.010086607
0.010084953
0.010085309
0.010088633
0.010094047
0.010100858
0.010108822
0.010117674
0.010127124
0.010136938
0.010146911
0.010156867
0.01016665
0.010176123
0.010185174
0.010193712
0.010201666
0.010208976
0.010215595
0.010221498
0.010226675
0.010231132
0.010234883
0.010237952
0.010240368
0.010242163
0.010243371
0.010244024
0.010244149
0.010243774
0.010242918
0.010241596
0.010239814
0.010237579
0.0102349
0.010231793
0.010228275
0.010224362
0.010220063
0.010215378
0.010210293
0.010204789
0.010198844
0.010192431
0.010185512
0.010178035
0.010169936
0.010161159
0.010151636
0.010141266
0.010129906
0.010117364
0.010103403
0.010087847
0.010070649
0.010052064
0.010036885
0.010025781
0.010017842
0.010012235
0.010008086
0.010004666
0.0100024
0.010003098
0.010002215
0.022133334
0.018435308
0.013263649
0.011887538
0.011063254
0.010767411
0.010489581
0.010373171
0.01027235
0.01021353
0.010169857
0.010140696
0.010121195
0.010109164
0.010102786
0.010100708
0.010101981
0.010106138
0.010112241
0.010119919
0.010128821
0.010138583
0.010148902
0.010159511
0.01017018
0.010180703
0.010190913
0.010200667
0.010209842
0.010218345
0.010226109
0.010233086
0.010239246
0.010244572
0.010249065
0.010252741
0.010255629
0.010257765
0.010259194
0.010259961
0.010260113
0.010259696
0.010258752
0.010257318
0.010255427
0.010253103
0.010250365
0.010247222
0.010243678
0.010239739
0.010235416
0.010230724
0.010225675
0.010220278
0.010214533
0.010208427
0.010201936
0.010195034
0.010187693
0.010179878
0.010171534
0.0101626
0.010153015
0.010142714
0.010131606
0.010119559
0.010106401
0.010091898
0.010075843
0.010058434
0.010040602
0.010027265
0.010017665
0.010011009
0.010006464
0.010003208
0.010000802
0.009999412
0.0099996119
0.0099980851
0.020863768
0.018266141
0.012877807
0.011685225
0.010943241
0.010687453
0.010441518
0.010339858
0.010253515
0.010203416
0.010167782
0.010145086
0.010131222
0.010124097
0.010122055
0.010123871
0.010128632
0.010135612
0.010144306
0.010154222
0.01016495
0.010176155
0.010187544
0.010198855
0.010209865
0.010220385
0.010230265
0.010239389
0.010247664
0.010255031
0.010261454
0.010266923
0.010271443
0.010275033
0.010277723
0.010279555
0.010280582
0.010280859
0.010280446
0.010279403
0.010277785
0.010275647
0.010273038
0.010269997
0.01026656
0.010262755
0.010258599
0.010254103
0.010249268
0.010244094
0.010238586
0.010232751
0.0102266
0.010220138
0.010213365
0.010206267
0.010198819
0.01019099
0.010182749
0.010174061
0.010164875
0.010155129
0.010144757
0.010133697
0.010121866
0.010109144
0.010095378
0.010080381
0.010063912
0.010046207
0.010030292
0.010018642
0.010010419
0.010004958
0.01000144
0.0099990077
0.0099974198
0.0099969898
0.0099974545
0.0099956192
0.019730726
0.017816674
0.012530594
0.011505507
0.010840964
0.01062029
0.010404844
0.010316857
0.010244387
0.010203031
0.010175361
0.010159204
0.010151026
0.010148842
0.01015112
0.010156698
0.010164712
0.010174503
0.010185498
0.010197235
0.010209326
0.010221434
0.01023328
0.01024462
0.010255262
0.010265047
0.010273867
0.010281645
0.01028834
0.010293934
0.010298438
0.010301882
0.01030431
0.010305775
0.010306337
0.010306061
0.010305015
0.010303271
0.010300898
0.01029796
0.010294521
0.010290635
0.010286352
0.010281714
0.010276755
0.010271499
0.010265965
0.01026016
0.010254081
0.010247726
0.010241087
0.010234166
0.010226967
0.010219491
0.010211737
0.010203692
0.01019533
0.010186616
0.010177514
0.010167988
0.010157992
0.010147465
0.010136339
0.010124548
0.010112019
0.010098646
0.010084284
0.010068809
0.010052164
0.010034745
0.010021135
0.010011042
0.010004062
0.0099996824
0.0099971464
0.0099955039
0.0099945219
0.0099949298
0.0099962326
0.0099943519
0.018717463
0.017005886
0.012220392
0.011347453
0.010756133
0.010566284
0.010380222
0.010305117
0.010246082
0.010213588
0.010193859
0.010184296
0.010181804
0.010184508
0.010190976
0.01020011
0.010211066
0.010223189
0.010235937
0.010248853
0.010261562
0.010273754
0.010285186
0.010295662
0.01030504
0.010313223
0.01032016
0.010325834
0.010330262
0.010333481
0.010335547
0.010336531
0.010336512
0.010335572
0.01033379
0.010331249
0.010328026
0.010324198
0.010319836
0.010315007
0.010309769
0.010304176
0.010298274
0.0102921
0.010285685
0.010279052
0.010272212
0.010265171
0.010257923
0.010250459
0.010242764
0.01023483
0.010226653
0.010218229
0.010209555
0.010200619
0.010191395
0.010181846
0.010171931
0.010161611
0.010150844
0.010139576
0.010127736
0.01011525
0.010102054
0.010088063
0.010073146
0.010057199
0.010040471
0.010024798
0.010013083
0.010004459
0.0099985993
0.0099951706
0.0099935345
0.009992674
0.0099921776
0.0099931382
0.0099953594
0.0099943893
0.017811729
0.016067939
0.011949904
0.011211042
0.010688347
0.010526471
0.01036874
0.010306137
0.010260095
0.010236596
0.010224751
0.010221743
0.010224805
0.010232162
0.010242458
0.01025464
0.010267889
0.010281569
0.010295162
0.010308248
0.010320502
0.010331675
0.010341595
0.010350146
0.010357264
0.010362936
0.01036718
0.010370051
0.010371623
0.010371984
0.010371231
0.010369465
0.01036679
0.010363304
0.010359099
0.01035426
0.010348868
0.010342995
0.010336708
0.010330067
0.010323123
0.010315924
0.010308507
0.010300903
0.010293137
0.010285227
0.010277181
0.010268999
0.010260672
0.010252186
0.010243522
0.010234661
0.010225587
0.010216293
0.010206769
0.010197004
0.010186977
0.010176649
0.010165977
0.010154914
0.010143421
0.010131453
0.010118944
0.010105811
0.010091985
0.010077407
0.010061999
0.010045741
0.010029162
0.010016084
0.010006107
0.009998849
0.0099940172
0.009991412
0.0099905374
0.0099904172
0.0099904612
0.009991877
0.0099949889
0.0099961591
0.017002562
0.015302041
0.011719764
0.011096647
0.010638478
0.010502297
0.010371965
0.010321655
0.010288178
0.010273729
0.010269607
0.010272919
0.01028114
0.010292577
0.010305937
0.010320219
0.010334644
0.010348628
0.01036173
0.010373614
0.010384053
0.010392905
0.010400103
0.010405639
0.010409547
0.010411898
0.010412788
0.010412329
0.010410644
0.01040786
0.010404097
0.010399474
0.010394103
0.010388085
0.010381511
0.010374464
0.010367013
0.010359224
0.010351151
0.010342843
0.010334341
0.010325681
0.010316891
0.010307995
0.010299009
0.010289945
0.010280806
0.01027159
0.010262286
0.010252874
0.010243331
0.010233632
0.010223751
0.01021367
0.010203374
0.010192851
0.010182081
0.010171033
0.01015966
0.010147913
0.010135746
0.010123122
0.010109987
0.010096262
0.01008186
0.010066732
0.010050875
0.01003453
0.010019644
0.01000849
0.010000126
0.0099941341
0.0099902678
0.0099883883
0.0099881063
0.0099885948
0.0099892791
0.0099912143
0.0099947756
0.0099971407
0.0162802
0.01461733
0.011525549
0.011004916
0.010607601
0.010495589
0.010391651
0.010353689
0.01033232
0.010326781
0.010329944
0.010338931
0.010351406
0.010365763
0.010380801
0.010395615
0.010409535
0.010422101
0.010433014
0.010442086
0.010449235
0.01045446
0.01045782
0.010459415
0.010459375
0.010457844
0.010454973
0.010450917
0.010445825
0.010439837
0.010433083
0.01042568
0.010417734
0.010409336
0.010400568
0.010391497
0.010382182
0.010372671
0.010363005
0.010353219
0.010343341
0.010333395
0.010323399
0.010313366
0.010303305
0.010293221
0.010283113
0.010272976
0.010262796
0.010252554
0.010242224
0.010231774
0.010221173
0.010210392
0.010199408
0.010188201
0.010176754
0.010165043
0.010153027
0.010140655
0.010127874
0.010114641
0.010100919
0.010086651
0.010071743
0.01005614
0.010039992
0.010023952
0.010011494
0.010002
0.0099950465
0.00999021
0.0099872585
0.0099860492
0.0099862243
0.009987117
0.0099883584
0.0099908713
0.0099947293
0.0099979017
0.015637351
0.014025835
0.011366173
0.010936743
0.010596888
0.010508754
0.01043012
0.010404647
0.010394686
0.01039739
0.010406745
0.010419976
0.01043496
0.01045025
0.010464824
0.01047798
0.010489257
0.010498401
0.010505318
0.010510009
0.01051256
0.010513106
0.010511821
0.010508893
0.010504517
0.01049888
0.010492162
0.010484528
0.010476129
0.010467099
0.010457558
0.010447606
0.010437332
0.010426811
0.010416104
0.010405262
0.010394326
0.010383328
0.010372294
0.010361242
0.010350189
0.010339144
0.010328116
0.010317108
0.010306122
0.010295155
0.010284204
0.010273258
0.010262305
0.010251324
0.010240289
0.010229169
0.010217929
0.010206531
0.010194942
0.010183133
0.010171081
0.010158765
0.010146158
0.010133216
0.010119884
0.010106103
0.010091835
0.010077056
0.010061716
0.010045739
0.010029447
0.010015309
0.010004578
0.009996548
0.009990794
0.00998697
0.0099848598
0.0099842795
0.0099848434
0.0099859974
0.0099876304
0.0099906711
0.0099947858
0.0099984485
0.015067914
0.013518696
0.011243112
0.010894991
0.010608282
0.010545236
0.010490339
0.010476976
0.010476919
0.010486096
0.010499395
0.010514304
0.010529031
0.010542439
0.010553827
0.010562809
0.010569216
0.01057305
0.010574438
0.010573563
0.010570648
0.010565934
0.010559664
0.010552069
0.010543367
0.010533753
0.0105234
0.010512459
0.010501062
0.01048932
0.010477328
0.010465163
0.01045289
0.010440561
0.010428215
0.010415886
0.010403595
0.010391359
0.010379188
0.010367088
0.01035506
0.010343104
0.010331218
0.010319396
0.010307632
0.010295918
0.010284245
0.0102726
0.010260971
0.010249336
0.010237674
0.010225954
0.010214142
0.010202198
0.010190081
0.010177751
0.010165174
0.010152324
0.010139177
0.010125709
0.010111877
0.010097621
0.010082873
0.010067602
0.010051865
0.010035838
0.010020088
0.010008091
0.0099988607
0.0099920627
0.0099873127
0.0099843365
0.0099829488
0.0099829255
0.0099838378
0.0099852041
0.0099871271
0.0099905749
0.009994952
0.0099988562
0.01457021
0.013088421
0.011158459
0.010884506
0.010645918
0.010608782
0.010574836
0.010571712
0.010578526
0.010590807
0.010604413
0.010617327
0.010628284
0.01063662
0.01064206
0.010644583
0.010644329
0.010641532
0.010636487
0.010629499
0.010620868
0.010610873
0.010599772
0.010587789
0.010575124
0.010561946
0.010548398
0.010534598
0.010520645
0.010506619
0.010492584
0.010478591
0.010464678
0.010450875
0.0104372
0.010423668
0.010410285
0.010397053
0.010383968
0.010371024
0.010358213
0.010345523
0.010332942
0.010320458
0.010308057
0.010295725
0.010283449
0.010271213
0.010259001
0.010246796
0.010234576
0.010222316
0.010209986
0.01019755
0.010184965
0.010172186
0.010159166
0.010145864
0.010132249
0.010118298
0.010103995
0.010089311
0.010074184
0.010058528
0.010042342
0.010026147
0.010012586
0.010002115
0.0099942122
0.0099884622
0.0099845538
0.0099822692
0.0099814548
0.009981872
0.0099830865
0.0099846869
0.0099868883
0.0099905767
0.0099951127
0.0099990497
0.014149276
0.012733401
0.011115216
0.010909872
0.010736742
0.010701467
0.010683492
0.010686385
0.010695134
0.010705643
0.010714952
0.010721761
0.010725476
0.010725963
0.010723367
0.010717978
0.010710154
0.010700269
0.010688691
0.010675756
0.010661762
0.010646966
0.010631587
0.010615808
0.01059978
0.010583627
0.010567449
0.010551322
0.01053531
0.010519459
0.010503802
0.010488365
0.010473163
0.010458204
0.010443491
0.010429021
0.010414787
0.010400777
0.01038698
0.010373378
0.010359954
0.010346689
0.010333563
0.010320556
0.01030765
0.010294823
0.010282058
0.010269335
0.010256637
0.010243944
0.010231237
0.010218495
0.010205693
0.010192802
0.010179785
0.010166601
0.0101532
0.01013953
0.010125541
0.010111191
0.010096458
0.010081336
0.010065838
0.010049994
0.010033902
0.010018178
0.01000642
0.0099972813
0.0099904834
0.0099856292
0.009982439
0.0099807272
0.0099803505
0.0099810718
0.0099825025
0.0099843404
0.0099868568
0.0099907338
0.0099953311
0.0099991929
0.013816168
0.01245455
0.011117511
0.010969713
0.010843466
0.010820961
0.010811093
0.010813523
0.010817961
0.010821307
0.010821868
0.010819141
0.010813155
0.010804206
0.01079271
0.010779116
0.010763855
0.010747316
0.010729834
0.010711696
0.010693136
0.010674346
0.010655478
0.010636652
0.010617964
0.010599483
0.010581266
0.01056335
0.010545762
0.010528521
0.010511633
0.010495102
0.010478925
0.010463092
0.010447594
0.010432414
0.010417536
0.010402938
0.0103886
0.010374499
0.01036061
0.010346908
0.010333368
0.010319963
0.01030667
0.010293463
0.010280319
0.010267214
0.010254127
0.010241036
0.010227923
0.010214765
0.010201543
0.010188232
0.010174806
0.010161232
0.010147469
0.010133472
0.010119185
0.010104554
0.010089522
0.010074046
0.010058115
0.010041828
0.010025708
0.010012029
0.010001476
0.0099934495
0.0099875465
0.0099834323
0.0099808484
0.0099796191
0.009979587
0.0099805128
0.0099820715
0.0099840904
0.0099868884
0.00999093
0.0099955349
0.0099992979
0.013594266
0.012253742
0.011167663
0.011069484
0.010977598
0.010956991
0.01094635
0.010941249
0.010935494
0.010927324
0.010916172
0.010902161
0.0108857
0.010867272
0.01084735
0.010826357
0.010804657
0.010782544
0.010760258
0.010737983
0.010715864
0.01069401
0.010672501
0.010651395
0.010630731
0.010610535
0.010590821
0.010571597
0.010552861
0.010534606
0.010516821
0.010499491
0.0104826
0.010466128
0.010450052
0.010434349
0.010418994
0.010403961
0.010389222
0.01037475
0.010360515
0.01034649
0.010332643
0.010318947
0.01030537
0.010291886
0.010278465
0.010265081
0.010251707
0.010238318
0.010224892
0.010211406
0.010197838
0.010184167
0.01017037
0.010156421
0.010142293
0.010127952
0.010113359
0.010098472
0.010083245
0.010067635
0.010051623
0.010035321
0.010019425
0.010007228
0.0099976899
0.0099905229
0.0099853194
0.0099817809
0.0099796737
0.0099788257
0.0099790591
0.0099801335
0.009981777
0.0099839138
0.009986883
0.0099910269
0.0099956821
0.0099993171
0.013431
0.012131034
0.011267419
0.011195524
0.011121917
0.011095673
0.011075024
0.01105653
0.01103676
0.011015099
0.010991617
0.010966675
0.010940709
0.010914122
0.010887255
0.010860378
0.010833704
0.010807389
0.010781549
0.010756263
0.010731586
0.010707552
0.010684176
0.010661467
0.010639419
0.010618024
0.010597266
0.010577127
0.010557585
0.010538616
0.010520196
0.010502298
0.010484895
0.01046796
0.010451464
0.010435377
0.010419671
0.010404314
0.010389276
0.010374527
0.010360035
0.010345769
0.010331698
0.010317788
0.01030401
0.010290331
0.010276721
0.010263148
0.010249583
0.010235998
0.010222364
0.010208656
0.010194848
0.010180914
0.010166832
0.010152575
0.01013812
0.010123438
0.010108503
0.010093288
0.010077763
0.010061912
0.010045769
0.010029618
0.010014853
0.010003642
0.0099949259
0.0099884179
0.0099837485
0.0099806418
0.0099788801
0.0099782911
0.009978699
0.0099798679
0.0099815781
0.0099837872
0.0099867657
0.0099907497
0.0099952542
0.0099989924
0.013359189
0.012084869
0.011417834
0.011330956
0.011260118
0.011218878
0.011182559
0.01114827
0.01111421
0.011080113
0.011046074
0.011012299
0.010978999
0.010946344
0.01091446
0.010883433
0.010853316
0.010824136
0.010795901
0.010768604
0.010742228
0.010716752
0.010692144
0.010668376
0.010645412
0.010623218
0.01060176
0.010581002
0.01056091
0.010541448
0.010522584
0.010504283
0.010486513
0.01046924
0.010452432
0.010436056
0.010420081
0.010404474
0.010389203
0.010374236
0.010359541
0.010345085
0.010330836
0.010316763
0.010302832
0.010289011
0.010275269
0.010261573
0.010247891
0.010234193
0.010220447
0.010206624
0.010192694
0.010178626
0.010164393
0.010149964
0.01013531
0.010120401
0.01010521
0.010089713
0.010073894
0.010057759
0.01004141
0.010025334
0.010011674
0.010001146
0.0099930415
0.009987021
0.0099827486
0.0099799637
0.0099784692
0.0099780154
0.0099785347
0.0099797466
0.009981517
0.0099838129
0.0099868057
0.009990606
0.0099948558
0.0099986317
0.013350228
0.012057457
0.011557484
0.011451952
0.011369895
0.011311377
0.011259346
0.011211411
0.011166034
0.011122714
0.011081224
0.011041447
0.01100331
0.010966745
0.010931688
0.010898072
0.010865831
0.010834896
0.010805202
0.010776683
0.010749277
0.010722924
0.010697566
0.010673149
0.010649618
0.010626926
0.010605025
0.01058387
0.010563419
0.010543629
0.010524463
0.010505883
0.010487851
0.010470332
0.010453292
0.010436696
0.010420512
0.010404706
0.010389246
0.010374099
0.010359234
0.010344618
0.010330219
0.010316005
0.010301945
0.010288007
0.010274159
0.010260369
0.010246607
0.010232842
0.010219042
0.010205176
0.010191214
0.010177124
0.010162874
0.01014843
0.010133758
0.010118822
0.010103585
0.010088012
0.010072077
0.010055782
0.010039248
0.010023093
0.010009976
0.0099998093
0.0099920303
0.0099862852
0.0099822483
0.009979662
0.0099783198
0.0099779242
0.0099785479
0.0099797877
0.0099816158
0.0099839797
0.0099869541
0.0099905607
0.0099945543
0.0099983547
0.013409898
0.012076442
0.011657156
0.011535279
0.01144062
0.011368401
0.011305303
0.011248491
0.011196137
0.011147353
0.011101575
0.011058421
0.011017605
0.0109789
0.010942121
0.010907108
0.010873722
0.010841843
0.010811361
0.010782181
0.010754213
0.010727378
0.010701602
0.010676818
0.010652964
0.010629981
0.010607816
0.010586419
0.010565743
0.010545743
0.010526378
0.010507607
0.010489392
0.010471697
0.010454486
0.010437723
0.010421375
0.010405409
0.010389792
0.010374492
0.010359477
0.010344715
0.010330174
0.010315824
0.010301634
0.010287573
0.010273609
0.010259713
0.010245856
0.010232006
0.010218135
0.010204214
0.010190214
0.010176107
0.010161864
0.010147455
0.010132847
0.010118009
0.010102907
0.010087507
0.010071783
0.010055732
0.010039455
0.010023481
0.010010137
0.0099998863
0.009992041
0.0099862632
0.0099822179
0.009979645
0.009978343
0.0099779859
0.0099785639
0.0099798292
0.009981707
0.0099841361
0.0099871
0.0099905491
0.009994339
0.0099981726
0.013506762
0.012120079
0.011706258
0.011575522
0.011472703
0.01139433
0.01132643
0.011266115
0.011211115
0.011160339
0.011113034
0.011068699
0.011026956
0.010987513
0.010950136
0.01091463
0.010880832
0.0108486
0.010817812
0.010788359
0.010760145
0.010733083
0.010707096
0.010682111
0.010658064
0.010634894
0.010612547
0.010590971
0.010570117
0.01054994
0.010530399
0.010511451
0.01049306
0.010475187
0.010457797
0.010440855
0.010424328
0.010408181
0.010392383
0.010376902
0.010361705
0.01034676
0.010332038
0.010317507
0.010303135
0.010288892
0.010274748
0.010260672
0.010246635
0.010232606
0.010218557
0.010204459
0.010190284
0.010176004
0.010161591
0.010147016
0.010132248
0.010117257
0.01010201
0.010086475
0.010070628
0.010054471
0.010038129
0.010022221
0.010009438
0.0099994597
0.0099918193
0.0099861655
0.0099821939
0.0099796525
0.0099783334
0.009977944
0.00997856
0.009979809
0.0099817013
0.0099841456
0.009987097
0.0099904828
0.0099941896
0.0099980701
92.345579
453.58869
141.57888
12.316697
0.27214819
0.021639919
0.02065194
0.020040201
0.019352515
0.01817243
0.016948184
0.015880641
0.015027963
0.014463859
0.014064343
0.013690502
0.013323117
0.012992991
0.012714078
0.012480659
0.012282461
0.012111647
0.011962976
0.011832625
0.011717553
0.01161528
0.011523814
0.011441565
0.011367281
0.011299975
0.011238828