/*--------------------------------*- C++ -*----------------------------------*\
| =========                 |                                                 |
| \\      /  F ield         | OpenFOAM: The Open Source CFD Toolbox           |
|  \\    /   O peration     | Version:  2512                                  |
|   \\  /    A nd           | Website:  www.openfoam.com                      |
|    \\/     M anipulation  |                                                 |
\*---------------------------------------------------------------------------*/
FoamFile
{
    version     2.0;
    format      ascii;
    arch        "LSB;label=32;scalar=64";
    class       volScalarField;
    location    "0.144";
    object      Ma;
}
// * * * * * * * * * * * * * * * * * * * * * * * * * * * * * * * * * * * * * //

dimensions      [0 0 0 0 0 0 0];

internalField   nonuniform List<scalar> 
16000
(
0.62596414
0.74379989
0.69830313
0.72366611
0.70821528
0.7155779
0.7097015
0.71141894
0.70873121
0.70837957
0.70676022
0.70567274
0.70427862
0.70292734
0.70148657
0.69999922
0.69845169
0.69684658
0.69518252
0.6934592
0.69167627
0.68983363
0.68793143
0.68597006
0.68395023
0.68187296
0.67973965
0.67755207
0.67531239
0.67302321
0.67068753
0.66830881
0.66589094
0.66343823
0.6609554
0.65844753
0.65592008
0.6533788
0.65082967
0.64827888
0.64573273
0.64319757
0.6406797
0.63818533
0.63572047
0.63329088
0.63090196
0.62855874
0.62626577
0.62402714
0.62184638
0.61972648
0.61766986
0.61567837
0.61375326
0.61189522
0.61010436
0.60838024
0.60672183
0.60512747
0.6035948
0.60212117
0.6007035
0.59933796
0.59801987
0.59674359
0.59550251
0.59428951
0.59309757
0.59191998
0.59074973
0.58957816
0.58839482
0.58718998
0.58595911
0.58470444
0.58336357
0.58227405
0.58021473
0.58006916
0.63043224
0.74901913
0.70180706
0.72831909
0.71202007
0.71987654
0.71352973
0.71538199
0.71250379
0.71208359
0.71037671
0.70917245
0.707688
0.70622144
0.70467217
0.70306757
0.70140045
0.69967127
0.69787949
0.69602478
0.69410708
0.69212659
0.69008377
0.68797941
0.68581468
0.68359111
0.68131063
0.67897561
0.67658886
0.67415367
0.67167378
0.66915341
0.66659721
0.66401029
0.66139816
0.65876669
0.65612206
0.65347073
0.65081931
0.64817453
0.64554314
0.64293181
0.64034709
0.63779526
0.6352823
0.63281379
0.63039484
0.62803008
0.62572355
0.62347875
0.62129854
0.61918519
0.61714037
0.61516516
0.61326008
0.61142506
0.60965952
0.60796234
0.60633191
0.60476607
0.603262
0.60181659
0.60042643
0.5990875
0.59779501
0.59654325
0.59532555
0.5941346
0.59296309
0.59180414
0.59065073
0.58949435
0.58832445
0.58713083
0.58590704
0.58464766
0.58336322
0.58209486
0.58043938
0.57974311
0.63463116
0.7537839
0.70537342
0.73234498
0.71561862
0.72356242
0.71707103
0.71879977
0.71587439
0.71529163
0.71351935
0.71217443
0.71058597
0.7089912
0.70731674
0.70558014
0.70377718
0.70190797
0.69997224
0.69796999
0.69590149
0.69376732
0.69156839
0.689306
0.68698185
0.68459808
0.68215731
0.67966264
0.67711768
0.67452656
0.67189391
0.66922489
0.66652509
0.66380059
0.66105782
0.65830357
0.65554487
0.65278892
0.65004302
0.64731443
0.64461031
0.6419376
0.63930294
0.63671255
0.6341722
0.63168708
0.62926181
0.62690036
0.62460604
0.62238149
0.62022868
0.61814895
0.616143
0.61421096
0.61235241
0.61056641
0.60885154
0.6072059
0.6056272
0.60411267
0.60265899
0.60126256
0.59991963
0.5986259
0.59737646
0.59616555
0.59498646
0.59383182
0.59269416
0.59156648
0.59044179
0.58931188
0.58816637
0.58699438
0.58578838
0.58454727
0.5832832
0.58195809
0.58047584
0.57955234
0.63844102
0.7581155
0.70838024
0.7358112
0.71873142
0.72678636
0.72013155
0.72172756
0.71874019
0.71797934
0.71612682
0.71462622
0.71291654
0.71117829
0.70936213
0.70747772
0.70552325
0.70349864
0.70140398
0.6992396
0.69700614
0.69470463
0.69233649
0.68990361
0.68740834
0.6848536
0.68224282
0.67958003
0.67686983
0.6741174
0.67132845
0.66850926
0.66566655
0.66280748
0.65993955
0.6570705
0.65420826
0.65136076
0.6485359
0.64574138
0.64298461
0.64027259
0.63761182
0.63500822
0.63246705
0.62999285
0.62758943
0.62525983
0.62300636
0.62083056
0.61873329
0.61671473
0.61477448
0.61291157
0.61112455
0.6094115
0.60777012
0.60619772
0.6046913
0.6032475
0.60186249
0.60053226
0.59925269
0.5980193
0.59682705
0.5956702
0.59454208
0.59343529
0.59234227
0.59125587
0.59016924
0.58907453
0.5879615
0.5868186
0.58563838
0.58442315
0.58317501
0.5818466
0.58047848
0.57937717
0.64185266
0.761953
0.71114031
0.73874814
0.72122519
0.72943351
0.72267067
0.72407156
0.72104144
0.72006855
0.71812701
0.71645342
0.71460467
0.71270804
0.71073363
0.7086858
0.70656401
0.70436823
0.70209882
0.69975647
0.6973423
0.69485787
0.6923053
0.68968726
0.68700704
0.68426853
0.68147631
0.6786356
0.67575226
0.67283278
0.66988423
0.66691421
0.66393073
0.6609422
0.65795725
0.65498463
0.65203309
0.64911123
0.6462274
0.64338953
0.64060501
0.63788062
0.63522241
0.63263562
0.63012466
0.62769308
0.62534353
0.62307782
0.62089693
0.61880108
0.61678978
0.61486189
0.61301575
0.6112492
0.60955966
0.60794424
0.60639971
0.60492262
0.60350926
0.60215572
0.60085772
0.59961089
0.59841079
0.59725278
0.5961318
0.59504215
0.59397729
0.59292988
0.59189233
0.59085742
0.58981847
0.58876806
0.5876961
0.58659081
0.5854456
0.58426304
0.58303584
0.58173211
0.58043318
0.57922363
0.64483037
0.76522041
0.71343482
0.7412059
0.72339886
0.73143871
0.72455703
0.72576961
0.72268833
0.72149678
0.7194555
0.71759842
0.71559454
0.71352649
0.7113782
0.70915095
0.70684482
0.70446014
0.7019977
0.6994588
0.69684532
0.6941597
0.69140508
0.68858528
0.68570485
0.68276906
0.67978396
0.67675629
0.67369351
0.67060369
0.66749549
0.66437803
0.66126078
0.6581534
0.65506568
0.65200727
0.64898761
0.64601573
0.64310013
0.64024862
0.6374682
0.634765
0.63214415
0.62960981
0.6271651
0.62481214
0.62255209
0.62038516
0.61831076
0.61632754
0.61443349
0.61262604
0.61090217
0.6092585
0.60769136
0.60619685
0.60477093
0.6034094
0.60210797
0.60086224
0.59966759
0.59851934
0.59741288
0.59634346
0.59530606
0.59429511
0.59330427
0.59232638
0.59135386
0.59037952
0.58939685
0.58839883
0.58737566
0.58631584
0.58521359
0.58406927
0.58287073
0.58160743
0.58036562
0.57907452
0.6473629
0.76791094
0.71528865
0.74316215
0.72510643
0.73278023
0.72597046
0.7268046
0.72374115
0.72225209
0.72009268
0.71804008
0.71585993
0.71360095
0.7112562
0.70882601
0.70631114
0.70371269
0.70103233
0.69827236
0.69543578
0.69252635
0.6895486
0.6865079
0.68341048
0.68026337
0.67707445
0.67385236
0.67060645
0.66734665
0.6640834
0.66082745
0.65758974
0.65438118
0.6512125
0.64809407
0.64503568
0.64204638
0.63913436
0.63630679
0.63356974
0.63092812
0.62838563
0.6259448
0.62360698
0.62137244
0.61924045
0.61720937
0.61527679
0.61343962
0.61169424
0.6100366
0.60846235
0.60696691
0.60554559
0.60419362
0.60290622
0.6016786
0.60050601
0.59938368
0.59830677
0.59727043
0.59626997
0.59530065
0.59435753
0.5934353
0.59252789
0.59162841
0.59072942
0.58982378
0.58890516
0.58796691
0.58699968
0.58599286
0.58494093
0.58384038
0.58267819
0.58146676
0.58027681
0.57892627
0.64948756
0.77005081
0.71673427
0.74465383
0.7263952
0.73377275
0.72684144
0.72759569
0.72408068
0.72234399
0.72003188
0.71775682
0.71536515
0.71288285
0.71030824
0.70764208
0.70488593
0.70204195
0.69911298
0.69610268
0.69301556
0.68985706
0.68663356
0.68335242
0.68002198
0.67665147
0.67325102
0.6698315
0.66640443
0.6629818
0.65957591
0.65619915
0.65286377
0.64958172
0.64636432
0.64322216
0.64016485
0.63720083
0.63433733
0.63158017
0.62893379
0.6264012
0.62398405
0.62168265
0.61949613
0.6174225
0.61545886
0.61360149
0.61184602
0.61018759
0.60862099
0.60714074
0.60574128
0.60441697
0.60316226
0.60197168
0.60083989
0.59976169
0.59873204
0.59774597
0.59679856
0.59588496
0.59500049
0.59414052
0.59330034
0.59247491
0.59165858
0.59084479
0.59002635
0.58919625
0.5883483
0.58747614
0.58657113
0.585624
0.58462875
0.583577
0.58245899
0.58130922
0.58016897
0.57877317
0.65126424
0.77165978
0.71770884
0.74566701
0.7269869
0.73368771
0.72689161
0.72683936
0.7237794
0.72171297
0.71919877
0.71666556
0.71402046
0.71127598
0.70843288
0.70549292
0.70245869
0.69933371
0.6961224
0.69283022
0.68946372
0.68603055
0.68253952
0.67900055
0.6754246
0.6718236
0.66821033
0.6645982
0.66100109
0.65743313
0.65390838
0.65044065
0.64704315
0.64372829
0.64050739
0.63739049
0.63438619
0.63150145
0.62874161
0.62611029
0.62360948
0.62123956
0.61899946
0.61688681
0.61489807
0.61302875
0.61127359
0.60962674
0.6080819
0.60663255
0.605272
0.60399358
0.6027907
0.60165692
0.60058606
0.59957219
0.59860963
0.59769299
0.59681713
0.59597709
0.59516802
0.59438519
0.59362411
0.59288037
0.59214952
0.59142694
0.59070742
0.58998487
0.58925245
0.58850335
0.58773142
0.58693051
0.58609305
0.58521143
0.58427815
0.58327974
0.58221335
0.58113298
0.58004073
0.57861422
0.65267861
0.77270355
0.7181386
0.74594169
0.72685727
0.73315952
0.72642865
0.72592904
0.72265132
0.72023787
0.71747257
0.71464518
0.71170389
0.70865546
0.70550206
0.7022471
0.69889485
0.69545078
0.69192158
0.68831524
0.68464106
0.68090968
0.67713303
0.67332426
0.66949754
0.66566799
0.66185134
0.65806376
0.65432149
0.65064057
0.6470365
0.64352389
0.64011617
0.63682531
0.63366158
0.63063337
0.62774708
0.62500709
0.62241577
0.61997358
0.6176792
0.61552971
0.61352084
0.61164712
0.60990218
0.60827895
0.60676986
0.60536706
0.60406256
0.60284839
0.60171672
0.60065998
0.59967086
0.59874246
0.59786825
0.59704209
0.59625828
0.59551144
0.59479655
0.59410882
0.59344367
0.59279664
0.59216355
0.59154028
0.59092278
0.59030686
0.58968784
0.5890602
0.58841756
0.58775335
0.58706141
0.58633568
0.58557003
0.58475854
0.5838913
0.58295029
0.58194267
0.58093683
0.57988993
0.57844862
0.65366571
0.77307106
0.71794988
0.74470057
0.72598619
0.73168709
0.7250962
0.72397213
0.72060514
0.71780904
0.7147349
0.71156783
0.70828081
0.70487976
0.70136836
0.6977523
0.69403831
0.69023469
0.68635131
0.6823996
0.67839259
0.67434478
0.67027206
0.66619148
0.66212101
0.65807925
0.65408507
0.65015724
0.64631402
0.64257274
0.63894943
0.63545841
0.63211202
0.62892037
0.62589117
0.62302969
0.62033873
0.6178188
0.61546821
0.61328336
0.61125898
0.60938839
0.60766384
0.60607674
0.60461795
0.60327802
0.60204738
0.60091653
0.59987617
0.59891733
0.59803144
0.59721042
0.59644668
0.59573314
0.59506329
0.59443111
0.59383107
0.59325808
0.59270743
0.5921747
0.5916557
0.59114639
0.590643
0.59014182
0.58963923
0.58913153
0.58861463
0.58808362
0.58753275
0.58695572
0.58634624
0.58569841
0.58500766
0.58426957
0.58347112
0.58259128
0.58164935
0.58072062
0.5797144
0.57827662
0.65414415
0.77261952
0.7170395
0.74287355
0.72456821
0.72935169
0.72282739
0.72110736
0.71750692
0.71429119
0.71084311
0.70728097
0.70359116
0.69978165
0.6958585
0.69183062
0.68770839
0.68350414
0.67923216
0.67490855
0.67055118
0.66617943
0.66181394
0.65747627
0.6531885
0.64897275
0.64485067
0.64084298
0.63696889
0.63324568
0.62968824
0.62630877
0.62311657
0.62011793
0.61731614
0.61471166
0.61230228
0.61008345
0.6080486
0.60618949
0.6044966
0.60295947
0.60156701
0.6003078
0.59917038
0.59814339
0.5972158
0.59637702
0.59561699
0.59492626
0.59429602
0.59371814
0.59318512
0.59269015
0.592227
0.59179004
0.59137421
0.59097487
0.59058783
0.59020917
0.58983524
0.58946253
0.58908775
0.58870768
0.58831917
0.58791906
0.58750382
0.58706928
0.58661038
0.58612116
0.58559515
0.58502667
0.58441274
0.58374975
0.58302144
0.58220647
0.58133706
0.58048581
0.57951279
0.57810078
0.65406325
0.77128068
0.71528415
0.74023788
0.72220493
0.72598163
0.71951605
0.7171157
0.71321208
0.70952423
0.70562822
0.70160355
0.69744425
0.69316216
0.68876738
0.68427356
0.67969632
0.67505368
0.67036584
0.66565499
0.660945
0.65626106
0.65162918
0.64707562
0.64262634
0.63830623
0.63413855
0.63014422
0.62634131
0.62274462
0.61936534
0.61621095
0.61328524
0.61058845
0.60811759
0.6058668
0.60382776
0.60199022
0.60034238
0.5988714
0.59756376
0.59640566
0.59538329
0.5944831
0.593692
0.59299749
0.59238779
0.59185189
0.59137962
0.59096161
0.59058931
0.59025499
0.58995168
0.58967309
0.58941362
0.58916829
0.58893266
0.58870275
0.588475
0.58824614
0.5880131
0.58777302
0.58752315
0.58726081
0.58698334
0.5866881
0.58637218
0.58603214
0.58566367
0.58526123
0.58481829
0.58432951
0.58379307
0.5832052
0.58254708
0.58180072
0.58101022
0.58023446
0.5792862
0.57792226
0.65340199
0.76895154
0.71262312
0.7365448
0.71882048
0.72148132
0.71498836
0.7118643
0.70754021
0.70330908
0.6988787
0.69431045
0.68960463
0.6847788
0.6798494
0.67483686
0.66976415
0.66465683
0.65954272
0.65445147
0.64941399
0.64446179
0.63962617
0.63493738
0.63042378
0.62611092
0.62202086
0.61817159
0.6145766
0.6112447
0.60818012
0.60538266
0.60284813
0.60056882
0.5985341
0.59673098
0.59514477
0.59375959
0.59255888
0.59152588
0.59064394
0.58989688
0.58926915
0.58874604
0.58831379
0.58795961
0.58767179
0.58743961
0.5872534
0.58710441
0.58698486
0.58688778
0.58680704
0.5867372
0.5866735
0.58661177
0.58654834
0.58648002
0.58640399
0.58631765
0.58621863
0.58610473
0.58597379
0.58582367
0.58565225
0.58545736
0.5852367
0.58498756
0.5847064
0.58438815
0.58402653
0.58361672
0.5831573
0.58264303
0.58205405
0.58138004
0.58067385
0.57996875
0.57903846
0.57774028
0.65208765
0.76544666
0.70901673
0.73165025
0.7142474
0.71566357
0.709043
0.7051246
0.70025422
0.69538639
0.69032167
0.68511676
0.67978036
0.6743382
0.66881591
0.66324327
0.65765293
0.65208004
0.6465617
0.64113603
0.63584122
0.6307144
0.62579047
0.62110092
0.61667289
0.61252831
0.60868346
0.60514865
0.60192839
0.59902164
0.59642239
0.59412034
0.59210166
0.5903498
0.58884624
0.58757123
0.58650439
0.58562528
0.58491383
0.58435066
0.58391734
0.58359659
0.58337236
0.58322989
0.58315573
0.58313772
0.58316493
0.58322762
0.58331713
0.58342583
0.58354701
0.58367484
0.58380424
0.58393081
0.58405077
0.58416087
0.58425835
0.58434082
0.58440624
0.58445275
0.58447866
0.58448245
0.58446257
0.58441744
0.58434545
0.5842449
0.58411403
0.58395082
0.58375243
0.58351441
0.58323115
0.58289852
0.58251453
0.58207122
0.58154969
0.58095139
0.58033349
0.57969209
0.57877383
0.57756029
0.65005914
0.76052006
0.70455936
0.72538
0.70830907
0.70831104
0.70141333
0.69660816
0.69104122
0.68541971
0.67960845
0.67366791
0.66761889
0.66149831
0.65534416
0.64919862
0.64310654
0.6371146
0.63126994
0.62561866
0.6202042
0.61506582
0.61023714
0.60574511
0.60160935
0.5978418
0.59444697
0.59142233
0.58875917
0.58644351
0.58445713
0.5827787
0.5813847
0.5802504
0.57935062
0.57866036
0.57815535
0.5778124
0.57760971
0.57752701
0.57754566
0.5776487
0.5778208
0.57804823
0.57831878
0.57862164
0.57894731
0.57928751
0.57963502
0.57998363
0.58032799
0.58066354
0.58098642
0.58129338
0.58158168
0.58184905
0.58209364
0.58231388
0.5825085
0.58267638
0.58281652
0.58292802
0.58300994
0.58306127
0.58308085
0.58306748
0.58301987
0.58293655
0.58281529
0.5826524
0.58244343
0.58218511
0.58187392
0.5814984
0.58104249
0.58052205
0.57999439
0.57941115
0.57850305
0.57738545
0.64725439
0.75380349
0.69893397
0.71747769
0.70068693
0.69909047
0.69172334
0.68590946
0.6794831
0.67297809
0.6663075
0.65954094
0.65271634
0.64588612
0.6391048
0.63243029
0.62592155
0.61963664
0.61363043
0.60795239
0.60264467
0.59774062
0.5932639
0.58922818
0.58563741
0.58248663
0.57976307
0.5774475
0.57551571
0.5739399
0.57268999
0.57173485
0.57104317
0.57058435
0.57032901
0.57024943
0.57031985
0.57051658
0.57081809
0.57120498
0.57165993
0.57216758
0.57271438
0.57328849
0.57387962
0.57447888
0.57507861
0.57567232
0.57625447
0.57682044
0.57736634
0.57788899
0.57838578
0.57885459
0.57929376
0.57970199
0.58007828
0.58042187
0.5807322
0.58100886
0.58125149
0.58145978
0.58163337
0.58177175
0.58187426
0.58194013
0.58196851
0.58195833
0.58190779
0.58181413
0.58167443
0.58148633
0.58124427
0.58093342
0.58054194
0.58009951
0.5796599
0.57913267
0.57824279
0.57720164
0.64355992
0.74474915
0.6916964
0.70751325
0.69094235
0.68753473
0.67947011
0.6725106
0.66506015
0.65754258
0.64991459
0.64226158
0.63464581
0.62714115
0.61982236
0.61276381
0.6060359
0.59970193
0.59381538
0.58841791
0.58353812
0.57919134
0.57538015
0.5720956
0.56931888
0.56702332
0.56517636
0.56374147
0.56267994
0.56195232
0.56151962
0.56134425
0.56139065
0.56162574
0.56201916
0.56254337
0.56317365
0.56388799
0.56466696
0.56549355
0.56635295
0.56723233
0.56812071
0.5690087
0.56988834
0.57075294
0.57159693
0.5724157
0.5732055
0.57396329
0.57468669
0.57537384
0.57602333
0.57663417
0.57720567
0.57773743
0.57822927
0.57868116
0.57909319
0.57946556
0.57979851
0.58009227
0.58034696
0.5805626
0.58073898
0.58087576
0.58097245
0.58102822
0.58104166
0.58101093
0.58093472
0.58081147
0.58063374
0.58038469
0.58005768
0.57969198
0.57933218
0.57885495
0.57799318
0.57703123
0.63872752
0.73314721
0.6823202
0.69492057
0.67848848
0.6730699
0.66403732
0.65577722
0.64714457
0.6385055
0.6298684
0.62134387
0.6130252
0.60501015
0.5973905
0.5902487
0.58365363
0.5776579
0.57229622
0.56758535
0.56352504
0.56010002
0.55728254
0.5550352
0.55331383
0.55207008
0.55125376
0.55081466
0.55070406
0.55087575
0.55128672
0.55189757
0.5526727
0.55358026
0.55459208
0.55568344
0.5568328
0.55802155
0.55923371
0.56045567
0.56167588
0.56288463
0.56407385
0.56523683
0.56636812
0.5674633
0.56851887
0.56953209
0.57050091
0.57142384
0.57229984
0.57312832
0.57390897
0.5746418
0.57532701
0.57596499
0.57655629
0.57710152
0.57760135
0.5780565
0.57846772
0.5788357
0.57916103
0.57944415
0.5796853
0.57988457
0.58004176
0.58015625
0.58022691
0.58025278
0.58023388
0.58016903
0.5800496
0.57985929
0.57959762
0.57930726
0.57901595
0.57857807
0.57775254
0.57688777
0.63238409
0.72013163
0.67030732
0.67907609
0.66258704
0.65495904
0.64464235
0.63491357
0.62498318
0.61519646
0.60562526
0.59641027
0.58767158
0.57951911
0.57204301
0.56531069
0.55936455
0.55422218
0.54987819
0.54630736
0.54346858
0.54130901
0.53976818
0.53878157
0.53828367
0.53821034
0.53850052
0.53909736
0.53994895
0.54100852
0.54223456
0.54359054
0.54504468
0.54656952
0.54814153
0.54974071
0.55135013
0.5529556
0.55454532
0.55610952
0.55764023
0.559131
0.56057669
0.56197329
0.56331771
0.5646077
0.56584168
0.56701864
0.56813807
0.56919982
0.57020411
0.57115141
0.5720424
0.57287793
0.57365899
0.57438665
0.57506206
0.57568637
0.57626076
0.5767864
0.57726444
0.57769596
0.57808192
0.57842314
0.5787203
0.57897386
0.5791839
0.57935001
0.5794714
0.57954788
0.57958012
0.57956669
0.57949857
0.57936283
0.5791664
0.57895018
0.57871812
0.57830815
0.57752379
0.57677743
0.62417384
0.70308525
0.65484407
0.65909544
0.64219231
0.63215167
0.62026363
0.6089727
0.59778705
0.58704451
0.57687514
0.56743453
0.55884182
0.55118533
0.54451726
0.53885498
0.53418422
0.53046417
0.52763361
0.52561722
0.52433141
0.52368936
0.52360503
0.52399605
0.52478573
0.52590421
0.52728894
0.52888475
0.53064359
0.53252402
0.53449063
0.53651342
0.53856714
0.54063073
0.54268673
0.54472076
0.54672113
0.54867839
0.55058502
0.55243512
0.55422417
0.55594879
0.55760658
0.55919594
0.56071595
0.56216625
0.56354695
0.56485852
0.56610177
0.56727772
0.56838761
0.56943284
0.57041488
0.57133533
0.57219579
0.57299791
0.57374333
0.57443365
0.57507047
0.57565532
0.57618967
0.57667491
0.5771123
0.577503
0.57784802
0.57814815
0.57840375
0.5786147
0.57878072
0.57890221
0.57897987
0.57901128
0.57898757
0.578901
0.57876648
0.57862081
0.57844324
0.57805944
0.57732223
0.57670374
0.61346666
0.68107679
0.63451311
0.63359111
0.61585052
0.60329116
0.58976672
0.57709483
0.56504479
0.55392687
0.54388481
0.53504101
0.52745977
0.52115684
0.5161029
0.51223262
0.50945421
0.50765905
0.50673031
0.50655002
0.50700426
0.50798679
0.50940109
0.51116138
0.51319267
0.51543035
0.51781941
0.52031349
0.52287384
0.52546837
0.52807068
0.53065922
0.53321659
0.53572882
0.53818486
0.54057608
0.54289585
0.54513923
0.54730268
0.54938378
0.55138107
0.55329386
0.55512212
0.5568663
0.5585273
0.56010634
0.56160493
0.56302476
0.56436771
0.56563576
0.56683098
0.56795549
0.56901143
0.57000097
0.57092623
0.57178931
0.57259225
0.573337
0.57402548
0.57465953
0.57524086
0.57577111
0.57625177
0.57668425
0.57706984
0.57740954
0.57770401
0.5779535
0.57815838
0.57831956
0.57843735
0.57850814
0.57852367
0.57848144
0.57840217
0.57831696
0.57818759
0.57784298
0.57717889
0.57665591
0.59910359
0.65203018
0.60745193
0.60084167
0.58198926
0.56704635
0.55231808
0.53898187
0.52699462
0.51657872
0.50780481
0.50068713
0.49517079
0.49115163
0.48849026
0.48702772
0.48659831
0.48703965
0.48819956
0.48994017
0.49213985
0.49469349
0.49751182
0.50052
0.50365605
0.50686914
0.51011793
0.51336911
0.51659608
0.51977775
0.52289764
0.52594301
0.52890419
0.53177402
0.53454737
0.53722076
0.53979207
0.54226024
0.54462509
0.54688713
0.54904744
0.55110754
0.55306928
0.5549348
0.55670643
0.55838666
0.55997808
0.56148335
0.56290519
0.5642463
0.56550942
0.56669723
0.56781238
0.56885747
0.56983503
0.57074751
0.57159725
0.5723865
0.57311743
0.57379208
0.57441239
0.57498015
0.57549707
0.57596474
0.57638459
0.57675781
0.57708528
0.57736769
0.57760604
0.57780161
0.57795429
0.57805984
0.57811147
0.57811105
0.57808096
0.57804323
0.57794872
0.57764511
0.57707178
0.57664338
0.57921092
0.6136393
0.57150677
0.55911347
0.53966848
0.52276559
0.50799972
0.4954334
0.48502957
0.47682952
0.47072941
0.46656408
0.46411714
0.46315089
0.46342528
0.46471296
0.46680804
0.46953039
0.47272651
0.47626831
0.48005064
0.48398832
0.48801318
0.49207117
0.49611987
0.50012635
0.50406528
0.50791747
0.51166864
0.51530841
0.5188295
0.52222709
0.52549828
0.52864172
0.53165726
0.53454567
0.53730844
0.53994765
0.54246579
0.54486566
0.54715032
0.54932297
0.55138694
0.55334562
0.55520244
0.55696085
0.55862425
0.56019602
0.56167951
0.56307798
0.56439462
0.56563255
0.5667948
0.5678843
0.56890386
0.56985621
0.57074392
0.57156945
0.57233517
0.5730433
0.57369592
0.57429499
0.57484234
0.57533968
0.57578857
0.5761903
0.57654593
0.57685655
0.5771236
0.57734846
0.57753069
0.57766636
0.57775124
0.57779102
0.57780666
0.57780875
0.57773979
0.57747066
0.57698916
0.57670022
0.55124965
0.56346897
0.52539027
0.50711107
0.48656066
0.47123127
0.45839753
0.44867036
0.44177493
0.4374639
0.4353839
0.43516769
0.43645554
0.43892097
0.44228051
0.44629683
0.45077639
0.45556463
0.46054013
0.4656088
0.47069862
0.47575509
0.48073751
0.48561592
0.49036873
0.49498075
0.49944176
0.50374532
0.5078879
0.51186814
0.51568639
0.5193442
0.52284409
0.52618923
0.52938331
0.53243035
0.53533459
0.53810044
0.54073238
0.5432349
0.5456125
0.54786963
0.55001069
0.55203997
0.55396171
0.55578
0.55749886
0.55912218
0.56065374
0.56209719
0.56345608
0.5647338
0.56593367
0.56705883
0.56811234
0.56909707
0.57001579
0.57087114
0.57166561
0.57240155
0.57308118
0.57370657
0.57427967
0.57480229
0.57527604
0.57570231
0.57608235
0.57641752
0.57670943
0.57695927
0.57716636
0.57732763
0.57744174
0.57751712
0.57757202
0.57760831
0.57756835
0.57734886
0.57696171
0.57674184
0.51114586
0.49892721
0.46186272
0.44413424
0.4268673
0.41482997
0.4066811
0.40220833
0.400743
0.40169591
0.40449562
0.40865616
0.41377758
0.41954444
0.42571424
0.43210458
0.43858055
0.44504393
0.45142435
0.45767228
0.46375371
0.46964609
0.47533528
0.48081332
0.4860767
0.49112515
0.49596072
0.50058706
0.50500897
0.50923199
0.51326214
0.51710573
0.5207692
0.52425904
0.52758166
0.53074341
0.53375047
0.5366089
0.53932456
0.54190313
0.54435011
0.5466708
0.54887032
0.55095361
0.55292541
0.55479031
0.5565527
0.55821683
0.55978677
0.56126644
0.5626596
0.56396986
0.56520069
0.56635542
0.56743722
0.56844912
0.56939399
0.57027458
0.57109352
0.57185323
0.57255604
0.57320413
0.57379953
0.57434411
0.57483958
0.57528743
0.57568908
0.57604608
0.57635999
0.57663177
0.57686065
0.57704464
0.57718448
0.57728908
0.57737222
0.57742998
0.57741241
0.57724656
0.57696498
0.57685019
0.45012985
0.41764504
0.38811131
0.37341244
0.36271593
0.35807381
0.35764497
0.36051264
0.36567984
0.37239013
0.3800615
0.38827359
0.39672953
0.40522513
0.41362298
0.42183293
0.42979785
0.43748344
0.44487108
0.4519528
0.4587278
0.46520006
0.47137662
0.47726646
0.48287967
0.48822692
0.49331909
0.498167
0.50278127
0.50717221
0.51134976
0.51532343
0.51910234
0.52269515
0.52611014
0.52935517
0.53243772
0.53536491
0.5381435
0.54077996
0.54328042
0.54565075
0.54789651
0.55002306
0.55203548
0.55393864
0.55573719
0.55743559
0.55903809
0.56054878
0.56197156
0.56331017
0.56456818
0.56574901
0.56685593
0.56789205
0.56886031
0.56976354
0.57060444
0.57138552
0.57210917
0.57277765
0.57339306
0.57395734
0.57447226
0.57493946
0.57536051
0.57573705
0.57607058
0.57636191
0.57661061
0.57681594
0.57697982
0.57710966
0.5772138
0.5772853
0.5772869
0.57717487
0.57698721
0.57691709
0.35516196
0.32154777
0.30407163
0.29973213
0.30122627
0.30758988
0.31682706
0.32768181
0.33928396
0.35108808
0.36276211
0.37411292
0.38503467
0.39547559
0.40541685
0.41485939
0.42381557
0.43230413
0.44034698
0.44796725
0.45518814
0.46203224
0.4685211
0.47467509
0.4805133
0.48605355
0.49131243
0.49630533
0.50104658
0.50554949
0.50982643
0.51388892
0.51774771
0.52141282
0.52489365
0.52819899
0.53133709
0.53431571
0.53714218
0.5398234
0.54236588
0.54477582
0.54705907
0.54922119
0.55126748
0.55320296
0.55503244
0.55676048
0.55839145
0.55992951
0.56137866
0.56274267
0.5640252
0.56522972
0.56635953
0.56741779
0.56840748
0.56933149
0.57019253
0.57099319
0.5717359
0.57242295
0.57305649
0.57363854
0.57417092
0.57465538
0.5750936
0.57548724
0.57583771
0.57614587
0.57641193
0.57663633
0.57682145
0.57697233
0.57709276
0.57717604
0.57719936
0.57714072
0.57702874
0.57698434
0.21638185
0.21509101
0.22056283
0.23406874
0.25141394
0.26982698
0.28809497
0.30558014
0.32205596
0.3374615
0.35182313
0.36520205
0.37767239
0.38930968
0.40018579
0.41036681
0.4199125
0.42887639
0.43730619
0.44524445
0.45272903
0.45979375
0.46646884
0.4727814
0.4787558
0.48441403
0.48977597
0.49485968
0.49968161
0.50425676
0.50859891
0.5127207
0.51663382
0.52034905
0.52387639
0.52722517
0.53040406
0.53342118
0.53628415
0.5390001
0.54157577
0.54401752
0.54633134
0.54852291
0.55059764
0.55256062
0.55441674
0.55617062
0.55782667
0.5593891
0.56086193
0.56224899
0.56355393
0.56478024
0.56593127
0.56701017
0.56801995
0.56896349
0.56984356
0.57066274
0.5714235
0.57212814
0.57277885
0.57337766
0.57392645
0.57442702
0.5748811
0.5752903
0.57565595
0.57597904
0.57626033
0.57650102
0.57670332
0.57686999
0.57700183
0.57709443
0.57713871
0.57713186
0.57707004
0.57703772
0.091790412
0.12180266
0.15927472
0.19297637
0.22312727
0.24966329
0.27320573
0.29422326
0.31313333
0.33026302
0.34587601
0.36018339
0.37335648
0.38553542
0.39683611
0.40735527
0.41717434
0.42636247
0.43497882
0.44307437
0.45069337
0.45787445
0.46465151
0.47105451
0.47711004
0.48284183
0.48827112
0.49341707
0.49829699
0.50292657
0.50732016
0.51149085
0.51545066
0.5192107
0.5227812
0.52617167
0.52939094
0.53244726
0.53534835
0.53810143
0.5407133
0.54319037
0.54553868
0.54776396
0.54987161
0.55186678
0.55375435
0.55553898
0.55722507
0.55881686
0.56031836
0.5617334
0.56306565
0.56431861
0.56549561
0.56659982
0.56763424
0.56860177
0.56950517
0.57034704
0.57112983
0.57185588
0.57252735
0.57314629
0.5737146
0.57423408
0.57470644
0.57513323
0.57551572
0.57585495
0.5761519
0.5764079
0.5766248
0.57680435
0.57694678
0.57704952
0.57710811
0.57712119
0.57709887
0.57706701
0.012346454
0.28497862
0.4670997
0.51780337
0.52750008
0.52750757
0.52751382
0.52912768
0.53102259
0.53283886
0.53452536
0.53617516
0.53772847
0.53925333
0.54075907
0.54225515
0.54374205
0.54522249
0.54669843
0.54817049
0.54963868
0.55110264
0.55256172
0.55401504
0.55546151
0.5568999
0.55832888
0.559747
0.56115279
0.5625447
0.56392114
0.5652805
0.56662113
0.56794136
0.56923948
0.57051379
0.57176255
0.572984
0.57417637
0.57533786
0.57646665
0.57756091
0.57861879
0.57963845
0.58061802
0.58155565
0.58244953
0.58329785
0.58409885
0.58485084
0.58555217
0.58620131
0.58679683
0.58733742
0.5878219
0.58824926
0.58861868
0.58892951
0.5891814
0.58937396
0.58950662
0.58957918
0.58959185
0.58954485
0.58943767
0.58926983
0.58903786
0.58874281
0.58837279
0.58794595
0.5874163
0.58687329
0.58612913
0.58550944
0.58443458
0.58390173
0.58231589
0.58201109
0.57991139
0.57971689
0.047268068
0.36932555
0.5225503
0.54942151
0.54949097
0.54693068
0.54616449
0.54644545
0.54668639
0.546987
0.54738791
0.54793992
0.54860474
0.54935158
0.55015504
0.55101133
0.5519153
0.55286448
0.55385467
0.55488134
0.55594037
0.55702788
0.5581401
0.55927339
0.56042422
0.56158917
0.56276491
0.56394821
0.56513594
0.56632505
0.56751259
0.56869568
0.56987152
0.57103737
0.57219057
0.57332849
0.57444859
0.57554834
0.57662527
0.57767696
0.578701
0.57969503
0.58065672
0.58158379
0.58247398
0.58332512
0.58413507
0.58490176
0.58562323
0.58629757
0.586923
0.58749789
0.58802072
0.58849015
0.58890498
0.5892642
0.58956706
0.58981298
0.5900017
0.59013291
0.59020616
0.59022139
0.59017894
0.59007909
0.58992147
0.58970553
0.58942817
0.58908983
0.58868019
0.58821443
0.58765265
0.58707261
0.58630718
0.58565175
0.58457004
0.58399374
0.5824141
0.58208074
0.57994699
0.57979972
0.094076592
0.44125163
0.54512008
0.55801448
0.55589179
0.55461388
0.55454029
0.55500371
0.55528474
0.55567748
0.55605475
0.55649517
0.55696009
0.55747549
0.55803147
0.55863145
0.5592719
0.55995351
0.56067444
0.56143244
0.56222531
0.5630507
0.56390608
0.5647888
0.56569612
0.56662519
0.56757313
0.56853701
0.56951386
0.5705007
0.57149454
0.57249238
0.57349123
0.57448812
0.57548008
0.57646417
0.57743746
0.57839705
0.57934009
0.58026373
0.58116518
0.58204169
0.58289054
0.58370909
0.58449476
0.58524503
0.58595749
0.5866298
0.58725976
0.58784526
0.58838437
0.58887531
0.58931647
0.58970644
0.59004399
0.59032808
0.59055798
0.59073317
0.59085346
0.59091861
0.59092825
0.59088243
0.59078158
0.59062605
0.59041553
0.59014944
0.58982493
0.58944201
0.58899138
0.58848627
0.5878907
0.58727452
0.58648505
0.58579759
0.58470272
0.58409008
0.58250695
0.58215057
0.57998407
0.57987548
0.16674735
0.49938895
0.55856904
0.56596068
0.56253945
0.56240745
0.56245528
0.56294557
0.56311601
0.56345464
0.56373194
0.56408672
0.56445283
0.56485937
0.56528894
0.56574801
0.56623451
0.56675081
0.56729635
0.56787048
0.56847261
0.56910195
0.56975749
0.57043798
0.57114201
0.57186796
0.57261403
0.57337824
0.57415845
0.57495239
0.57575763
0.57657165
0.57739181
0.57821538