/*--------------------------------*- C++ -*----------------------------------*\
| =========                 |                                                 |
| \\      /  F ield         | OpenFOAM: The Open Source CFD Toolbox           |
|  \\    /   O peration     | Version:  2512                                  |
|   \\  /    A nd           | Website:  www.openfoam.com                      |
|    \\/     M anipulation  |                                                 |
\*---------------------------------------------------------------------------*/
FoamFile
{
    version     2.0;
    format      ascii;
    arch        "LSB;label=32;scalar=64";
    class       volScalarField;
    location    "0.144";
    object      nut;
}
// * * * * * * * * * * * * * * * * * * * * * * * * * * * * * * * * * * * * * //

dimensions      [0 2 -1 0 0 0 0];

internalField   nonuniform List<scalar> 
16000
(
5.6009629e-07
1.1006157e-05
2.0086305e-05
2.3029681e-05
1.853676e-05
2.5113015e-05
1.7851921e-05
2.4535432e-05
1.9070056e-05
2.6496448e-05
2.2152107e-05
2.6140276e-05
2.3721809e-05
2.4350791e-05
2.3477267e-05
2.3318068e-05
2.3044484e-05
2.2953683e-05
2.2942052e-05
2.3029866e-05
2.3209339e-05
2.3479031e-05
2.3836177e-05
2.4280562e-05
2.4813917e-05
2.5441848e-05
2.6171949e-05
2.7016521e-05
2.7990625e-05
2.9110467e-05
3.0393806e-05
3.1864325e-05
3.3552672e-05
3.5496636e-05
3.7742758e-05
4.0346566e-05
4.3374216e-05
4.6904587e-05
5.1035359e-05
5.588766e-05
6.1603619e-05
6.8350519e-05
7.6339374e-05
8.5828744e-05
9.7126335e-05
0.00011060114
0.00012671079
0.00014601302
0.00016918702
0.00019706067
0.0002306475
0.00027119146
0.00032021444
0.00037958296
0.00045158685
0.00053904689
0.00064544911
0.00077511897
0.00093345446
0.0010190071
0.0010189386
0.0010188293
0.0010186809
0.0010184602
0.0010181644
0.0010177829
0.0010173075
0.0010167305
0.0010160413
0.0010152227
0.0010142442
0.0010130468
0.0010115937
0.0010101707
0.0010089479
0.0010078353
0.0010068056
0.0010064798
0.0010053382
0.0010062472
5.0611262e-07
1.0427709e-05
1.9562151e-05
2.0949294e-05
1.6758866e-05
2.2541121e-05
1.5876958e-05
2.1499322e-05
1.6882587e-05
2.3413295e-05
2.0091739e-05
2.3591967e-05
2.1724048e-05
2.2088161e-05
2.1401216e-05
2.1191031e-05
2.0960949e-05
2.0867267e-05
2.0858827e-05
2.0938817e-05
2.1104687e-05
2.135461e-05
2.1686372e-05
2.2099851e-05
2.2596282e-05
2.318088e-05
2.3860195e-05
2.4645285e-05
2.5550389e-05
2.6591322e-05
2.7784608e-05
2.9151876e-05
3.072149e-05
3.2528438e-05
3.4616267e-05
3.7037194e-05
3.9853848e-05
4.3140355e-05
4.6987692e-05
5.1510531e-05
5.6845505e-05
6.3150131e-05
7.0623147e-05
7.9511118e-05
9.0109692e-05
0.00010276971
0.00011792784
0.00013611817
0.00015799261
0.00018434638
0.00021615344
0.00025461243
0.00030119192
0.00035769663
0.00042634277
0.00050986324
0.0006116395
0.00073586379
0.00088775397
0.0010182818
0.0010182331
0.0010181028
0.0010179409
0.0010177083
0.0010174021
0.0010170114
0.0010165272
0.0010159419
0.0010152454
0.0010144213
0.001013444
0.0010122627
0.0010108378
0.0010094792
0.0010083138
0.0010072408
0.0010063078
0.0010057647
0.0010051622
0.0010061972
4.422821e-07
9.9895243e-06
1.8548379e-05
1.9190913e-05
1.5040368e-05
1.9897108e-05
1.4154666e-05
1.8708798e-05
1.5196404e-05
2.0552778e-05
1.8334848e-05
2.1015493e-05
1.969271e-05
1.9790797e-05
1.9259378e-05
1.9029894e-05
1.8835692e-05
1.8750029e-05
1.8747279e-05
1.8824153e-05
1.8979586e-05
1.9212136e-05
1.9519886e-05
1.9903024e-05
2.0362454e-05
2.0903225e-05
2.1531205e-05
2.2256422e-05
2.309216e-05
2.4053863e-05
2.5157243e-05
2.6422321e-05
2.7875582e-05
2.9549604e-05
3.1485288e-05
3.3731808e-05
3.6348675e-05
3.9406311e-05
4.2990079e-05
4.7208214e-05
5.2192859e-05
5.8094061e-05
6.5100078e-05
7.344631e-05
8.3418851e-05
9.5353884e-05
0.00010967055
0.00012688312
0.00014762084
0.00017265244
0.00020291911
0.00023958204
0.00028406544
0.00033812277
0.00040390923
0.00048408409
0.00058194081
0.00070156631
0.00084803974
0.0010176021
0.0010175733
0.0010174173
0.001017234
0.001016982
0.0010166579
0.0010162507
0.0010157508
0.0010151504
0.0010144401
0.0010136037
0.0010126186
0.0010114439
0.0010100432
0.0010087577
0.0010076556
0.0010066455
0.0010057625
0.0010051421
0.0010048151
0.0010056229
3.8250189e-07
9.6637353e-06
1.7649684e-05
1.8411777e-05
1.357403e-05
1.7599681e-05
1.2630682e-05
1.6362545e-05
1.3693808e-05
1.811921e-05
1.675269e-05
1.8732199e-05
1.7817925e-05
1.772215e-05
1.7308198e-05
1.7080069e-05
1.691724e-05
1.6843951e-05
1.6848685e-05
1.6924956e-05
1.7072446e-05
1.7290246e-05
1.7576801e-05
1.7932754e-05
1.8358836e-05
1.8860074e-05
1.94419e-05
2.0113535e-05
2.0887357e-05
2.1778504e-05
2.2802167e-05
2.3976996e-05
2.5327958e-05
2.6885568e-05
2.8688488e-05
3.0783282e-05
3.3226776e-05
3.6086506e-05
3.9443399e-05
4.3399721e-05
4.8084203e-05
5.3641278e-05
6.0250851e-05
6.8138455e-05
7.7583358e-05
8.8910548e-05
0.00010252536
0.00011892681
0.00013872672
0.00016267455
0.00019168674
0.0002268972
0.00026969775
0.00032180546
0.00038533289
0.00046288822
0.00055770379
0.00067379574
0.00081615723
0.00099098958
0.0010169571
0.0010167725
0.0010165628
0.0010162871
0.0010159408
0.0010155131
0.0010149936
0.0010143742
0.0010136464
0.0010127944
0.0010117972
0.0010106261
0.0010092455
0.0010080341
0.0010069995
0.0010060556
0.0010052037
0.0010045621
0.0010044154
0.0010048499
3.4764107e-07
9.4296435e-06
1.689168e-05
1.8497296e-05
1.3436238e-05
1.5587385e-05
1.1293002e-05
1.4347561e-05
1.2401177e-05
1.6024834e-05
1.5347896e-05
1.667671e-05
1.6068836e-05
1.584148e-05
1.5514055e-05
1.5300315e-05
1.5162469e-05
1.5101018e-05
1.5111042e-05
1.5185348e-05
1.5323958e-05
1.5526651e-05
1.5792272e-05
1.6121958e-05
1.6516407e-05
1.698066e-05
1.7519823e-05
1.8142484e-05
1.8860108e-05
1.968748e-05
2.0639453e-05
2.1733545e-05
2.2993471e-05
2.4447966e-05
2.6133781e-05
2.8095214e-05
3.0386708e-05
3.3073482e-05
3.6233182e-05
3.996242e-05
4.4387094e-05
4.9647492e-05
5.5917067e-05
6.3412137e-05
7.2406885e-05
8.3217675e-05
9.6238551e-05
0.00011195613
0.00013096795
0.00015400866
0.00018197455
0.00021597803
0.00025738486
0.00030788326
0.00036955232
0.00044495993
0.00053729011
0.00065050258
0.00078952348
0.0009604655
0.0010163851
0.0010161691
0.0010159279
0.0010156233
0.00101525
0.0010147973
0.0010142539
0.0010136113
0.0010128617
0.0010119905
0.0010109761
0.0010098041
0.0010084531
0.0010073168
0.0010063527
0.0010054751
0.0010046541
0.0010040264
0.0010039824
0.001004142
3.1380826e-07
9.2731834e-06
1.6278825e-05
1.8228552e-05
1.3240385e-05
1.3832374e-05
1.0737738e-05
1.2678326e-05
1.1699444e-05
1.4305909e-05
1.4119708e-05
1.48699e-05
1.4465815e-05
1.416008e-05
1.3886934e-05
1.3689325e-05
1.3567746e-05
1.3514018e-05
1.3525941e-05
1.3596488e-05
1.3725676e-05
1.3913838e-05
1.4160072e-05
1.4465786e-05
1.4831841e-05
1.5263211e-05
1.5764713e-05
1.634449e-05
1.701312e-05
1.7785006e-05
1.8674839e-05
1.9699235e-05
2.0880927e-05
2.2247192e-05
2.3833231e-05
2.5681493e-05
2.7844434e-05
3.0385466e-05
3.3380194e-05
3.6920403e-05
4.1129434e-05
4.6144948e-05
5.2136346e-05
5.9311651e-05
6.7941847e-05
7.8337677e-05
9.088488e-05
0.00010606134
0.00012445406
0.00014678851
0.00017394677
0.00020702717
0.00024737804
0.00029666893
0.00035695824
0.00043078877
0.00052131414
0.0006324588
0.00076910973
0.0009373297
0.0010158493
0.0010155992
0.0010153221
0.0010149844
0.0010145802
0.0010140986
0.0010135278
0.0010128585
0.0010120836
0.0010111903
0.0010101555
0.0010089765
0.0010076705
0.0010066106
0.001005719
0.0010049078
0.0010041225
0.0010035191
0.001003481
0.0010034763
2.7776201e-07
9.1805925e-06
1.5797268e-05
1.7203965e-05
1.308273e-05
1.2222272e-05
1.0730998e-05
1.1673083e-05
1.1202914e-05
1.2718972e-05
1.2998848e-05
1.3263836e-05
1.2965945e-05
1.2627393e-05
1.2386462e-05
1.2206389e-05
1.2098086e-05
1.2051857e-05
1.2066153e-05
1.2134487e-05
1.2256498e-05
1.2433014e-05
1.2663364e-05
1.287252e-05
1.3205537e-05
1.3601103e-05
1.4063461e-05
1.4600013e-05
1.5220313e-05
1.5938051e-05
1.6767724e-05
1.7725076e-05
1.883195e-05
2.011424e-05
2.1605725e-05
2.3347179e-05
2.5389207e-05
2.7793456e-05
3.0634238e-05
3.4256036e-05
3.8291769e-05
4.3111721e-05
4.8883644e-05
5.5808483e-05
6.4155079e-05
7.4231473e-05
8.641798e-05
0.00010118709
0.00011911843
0.00014093354
0.0001675055
0.00019992527
0.00023953149
0.00028798389
0.00034733134
0.0004201049
0.00050944351
0.00061925424
0.00075440724
0.000920947
0.0010153466
0.0010150597
0.0010147428
0.0010143683
0.0010139295
0.0010134156
0.0010128145
0.0010121155
0.0010113119
0.0010103941
0.0010093376
0.0010081428
0.0010069069
0.0010059239
0.001005105
0.0010043604
0.0010036167
0.0010030418
0.0010029858
0.00100284
2.5050915e-07
9.128115e-06
1.5376817e-05
1.5608149e-05
1.1729777e-05
1.06465e-05
9.052221e-06
1.0370711e-05
9.4833203e-06
1.1458773e-05
1.1859608e-05
1.1780435e-05
1.1528547e-05
1.1200601e-05
1.0987375e-05
1.0830029e-05
1.0737758e-05
1.0702118e-05
1.065658e-05
1.0710069e-05
1.0816907e-05
1.0977097e-05
1.1188753e-05
1.1451477e-05
1.1769414e-05
1.2145594e-05
1.2584426e-05
1.3093296e-05
1.368124e-05
1.4361555e-05
1.5148969e-05
1.6058791e-05
1.7112466e-05
1.8335043e-05
1.9759494e-05
2.1425553e-05
2.3382734e-05
2.5691611e-05
2.8426083e-05
3.1676119e-05
3.5551374e-05
4.0190712e-05
4.5762049e-05
5.2903069e-05
6.1047751e-05
7.0901157e-05
8.2841417e-05
9.7338897e-05
0.00011496916
0.00013645541
0.00016266731
0.00019469555
0.00023387748
0.00028187267
0.00034073233
0.00041299044
0.00050178841
0.0006110359
0.0007456096
0.0009115683
0.0010148703
0.0010145443
0.0010141845
0.00101377
0.0010132937
0.0010127448
0.0010121108
0.0010113801
0.0010105452
0.0010096002
0.0010085242
0.0010073059
0.0010061677
0.0010052623
0.0010045151
0.0010038377
0.0010031434
0.0010025891
0.0010024989
0.001002227
2.2663778e-07
9.0937336e-06
1.4920647e-05
1.3667613e-05
9.61138e-06
9.4860256e-06
7.4883362e-06
8.9062927e-06
9.0574913e-06
1.0264109e-05
1.0708783e-05
1.0403937e-05
1.0176476e-05
9.882562e-06
9.6964347e-06
9.4964346e-06
9.3965324e-06
9.3579159e-06
9.3735747e-06
9.4401886e-06
9.5528429e-06
9.7145253e-06
9.9227106e-06
1.0177827e-05
1.0483941e-05
1.0844901e-05
1.1265226e-05
1.175236e-05
1.2315016e-05
1.2966082e-05
1.3720623e-05
1.4593742e-05
1.5606769e-05
1.6784176e-05
1.8158445e-05
1.9768694e-05
2.1663784e-05
2.3903716e-05
2.6561819e-05
2.9727319e-05
3.3510273e-05
3.8047597e-05
4.3510022e-05
5.0095497e-05
5.8057758e-05
6.7712457e-05
8.0140435e-05
9.4500049e-05
0.00011198755
0.00013333312
0.00015940891
0.00019131249
0.00023038842
0.00027830598
0.00033713076
0.00040941462
0.00049831923
0.00060777736
0.00074269523
0.00090917672
0.001014415
0.0010140474
0.0010136423
0.0010131854
0.0010126692
0.0010120831
0.0010114145
0.0010106507
0.001009783
0.0010088076
0.0010077166
0.0010064948
0.001005459
0.0010046317
0.001003954
0.0010033438
0.0010027103
0.0010021767
0.0010020325
0.0010016218
2.0882247e-07
9.0520025e-06
1.3208392e-05
1.1947956e-05
7.7694006e-06
8.4406995e-06
6.7839071e-06
8.0158983e-06
8.3821374e-06
9.1744909e-06
9.5697822e-06
9.1521329e-06
8.9344876e-06
8.5954898e-06
8.4022328e-06
8.2740296e-06
8.2078222e-06
8.1946296e-06
8.2274313e-06
8.3066501e-06
8.4266232e-06
8.589125e-06
8.7953631e-06
9.0451897e-06
9.3429441e-06
9.6929153e-06
1.0099806e-05
1.0571257e-05
1.1115799e-05
1.174595e-05
1.2477152e-05
1.3324589e-05
1.4309677e-05
1.5456551e-05
1.6797496e-05
1.8371381e-05
2.0226823e-05
2.2423753e-05
2.5035828e-05
2.8152717e-05
3.1884616e-05
3.6368112e-05
4.1777139e-05
4.8309864e-05
5.622246e-05
6.583279e-05
7.7532762e-05
9.1782455e-05
0.00011016354
0.00013155755
0.00015772324
0.00018977214
0.00022906525
0.00027729183
0.0003365447
0.00040940941
0.00049908694
0.00060955569
0.00074577593
0.00091392641
0.0010139742
0.0010135631
0.0010131112
0.00101261
0.0010120522
0.0010114274
0.0010107228
0.0010099254
0.0010090248
0.0010080165
0.0010069106
0.0010057254
0.0010047862
0.0010040367
0.0010034258
0.0010028809
0.0010023179
0.0010018119
0.0010015929
0.0010011118
1.8960769e-07
9.001088e-06
1.0472673e-05
9.8208762e-06
6.4323116e-06
7.5122476e-06
6.189506e-06
7.1984213e-06
7.8353422e-06
8.1785992e-06
8.4506421e-06
7.9268791e-06
7.6653956e-06
7.4260059e-06
7.2803461e-06
7.1913239e-06
7.1533236e-06
7.1628902e-06
7.212463e-06
7.3013264e-06
7.4279063e-06
7.5935652e-06
7.7999064e-06
8.0473985e-06
8.3404977e-06
8.6839658e-06
9.0828157e-06
9.5449367e-06
1.0078855e-05
1.0696771e-05
1.135601e-05
1.2179162e-05
1.3138302e-05
1.4257181e-05
1.5567856e-05
1.7108964e-05
1.8928941e-05
2.1087694e-05
2.3659322e-05
2.6734209e-05
3.0423694e-05
3.5139156e-05
4.0550245e-05
4.7097042e-05
5.503827e-05
6.4695214e-05
7.6470977e-05
9.0836618e-05
0.00010838617
0.00012986019
0.00015759532
0.00019006226
0.00022989987
0.00027882834
0.00033898113
0.00041299439
0.00050412859
0.00061643237
0.00075494696
0.00092595456
0.0010135419
0.0010130855
0.0010125859
0.0010120394
0.0010114388
0.0010107745
0.0010100335
0.0010092021
0.0010082698
0.0010072298
0.0010061013
0.0010050013
0.0010041541
0.0010034814
0.0010029342
0.0010024508
0.001001961
0.0010014942
0.0010012034
0.0010007145
1.7470832e-07
8.9480008e-06
8.2654571e-06
8.3604699e-06
5.7582433e-06
6.6522071e-06
5.6775138e-06
6.4834708e-06
7.2767006e-06
7.249091e-06
7.23739e-06
6.7906943e-06
6.5762457e-06
6.3978895e-06
6.2928654e-06
6.2368829e-06
6.2250099e-06
6.2526907e-06
6.3166805e-06
6.4165341e-06
6.5507152e-06
6.721017e-06
6.9299172e-06
7.178385e-06
7.4710049e-06
7.7793478e-06
8.1689956e-06
8.6214751e-06
9.145178e-06
9.7518613e-06
1.0455667e-05
1.1274992e-05
1.223058e-05
1.3346262e-05
1.4654413e-05
1.6194106e-05
1.801442e-05
2.0176119e-05
2.2754865e-05
2.5843051e-05
2.9554762e-05
3.4032572e-05
3.9451189e-05
4.6020149e-05
5.4002654e-05
6.4279845e-05
7.6241806e-05
9.0853539e-05
0.00010871985
0.00013060437
0.00015744011
0.00019217058
0.00023288594
0.00028291743
0.00034445327
0.00042019849
0.00051349475
0.00062848782
0.00077033094
0.00094543764
0.0010131124
0.0010126092
0.0010120619
0.0010114696
0.0010108258
0.0010101214
0.001009344
0.0010084792
0.0010075164
0.0010064524
0.0010053001
0.0010043262
0.0010035667
0.0010029685
0.0010024826
0.0010020555
0.0010016359
0.001001222
0.0010008844
0.0010003758
1.6126097e-07
8.8693105e-06
6.5758369e-06
7.3435968e-06
5.1317674e-06
5.8819995e-06
5.2343414e-06
5.8465934e-06
6.6100536e-06
6.1958787e-06
6.1415092e-06
5.7963846e-06
5.6253297e-06
5.4966804e-06
5.4267029e-06
5.3992049e-06
5.4096547e-06
5.4555242e-06
5.5337621e-06
5.6448148e-06
5.7880249e-06
5.9653193e-06
6.1535339e-06
6.4008873e-06
6.6922106e-06
7.0317044e-06
7.4264251e-06
7.8839181e-06
8.4127669e-06
9.024904e-06
9.7346055e-06
1.0560036e-05
1.1523172e-05
1.2648219e-05
1.396813e-05
1.5522785e-05
1.7362435e-05
1.95492e-05
2.2160993e-05
2.5293211e-05
2.9062864e-05
3.361579e-05
3.9135706e-05
4.5837493e-05
5.3992654e-05
6.3938928e-05
7.6095936e-05
9.0971044e-05
0.00011015082
0.00013263407
0.00016022281
0.00019410828
0.00023800902
0.00028955269
0.00035296537
0.00043104088
0.00052722556
0.00064579089
0.0007920392
0.00097254605
0.0010126802
0.0010121293
0.0010115349
0.001010897
0.00101021
0.0010094657
0.0010086526
0.0010077559
0.0010067633
0.0010056855
0.0010045741
0.0010037026
0.0010030267
0.0010025001
0.0010020734
0.0010016975
0.0010013413
0.0010009934
0.001000647
0.001000111
1.4938499e-07
8.7358407e-06
5.2788066e-06
6.4207977e-06
4.5689576e-06
5.1944088e-06
4.8559685e-06
5.1958391e-06
5.7744121e-06
5.2807669e-06
5.1808497e-06
4.9275386e-06
4.7971887e-06
4.7100727e-06
4.6711084e-06
4.6692452e-06
4.700632e-06
4.7637683e-06
4.856597e-06
4.9613645e-06
5.1096823e-06
5.2921174e-06
5.510965e-06
5.7692098e-06
6.0711309e-06
6.4212803e-06
6.8266032e-06
7.295237e-06
7.8359656e-06
8.4608689e-06
9.1843443e-06
1.0024791e-05
1.0955005e-05
1.2089433e-05
1.3420959e-05
1.4990242e-05
1.6848904e-05
1.9060466e-05
2.1705124e-05
2.4881758e-05
2.8711283e-05
3.3597003e-05
3.9268323e-05
4.6163792e-05
5.4564268e-05
6.4817205e-05
7.7362311e-05
9.2729401e-05
0.00011156745
0.00013591831
0.00016448866
0.00019959828
0.00024276694
0.00029871353
0.00036450611
0.00044552276
0.00054534122
0.00066838769
0.00082015656
0.0010074274
0.0010122406
0.0010116418
0.0010110016
0.001010319
0.0010095895
0.0010088057
0.0010079573
0.0010070316
0.0010060142
0.0010049179
0.0010039125
0.0010031351
0.0010025363
0.0010020767
0.001001708
0.001001379
0.0010010731
0.0010007958
0.0010004938
0.00099994816
1.3888271e-07
8.5162845e-06
4.3021342e-06
5.5954285e-06
4.0645813e-06
4.5830256e-06
4.5237664e-06
4.4899389e-06
4.9338531e-06
4.4666113e-06
4.3500428e-06
4.172192e-06
4.0801126e-06
4.028691e-06
4.0177452e-06
4.039516e-06
4.0909614e-06
4.1548541e-06
4.2576283e-06
4.3909616e-06
4.5557377e-06
4.7534913e-06
4.9871683e-06
5.2599181e-06
5.5765424e-06
5.9418254e-06
6.3627557e-06
6.8273732e-06
7.3800777e-06
8.0175768e-06
8.7543259e-06
9.6087641e-06
1.0603461e-05
1.1766797e-05
1.3132666e-05
1.4743078e-05
1.6652005e-05
1.8925369e-05
2.1646556e-05
2.4919444e-05
2.8870491e-05
3.3659061e-05
3.947797e-05
4.6564807e-05
5.5212402e-05
6.6333455e-05
7.9370665e-05
9.5352971e-05
0.00011496117
0.00013903514
0.00017019396
0.00020680168
0.00025183212
0.00030723892
0.00037903279
0.00046360854
0.00056781853
0.00069627366
0.0008547042
0.0010124107
0.0010117891
0.0010111438
0.0010104597
0.0010097338
0.0010089628
0.0010081406
0.0010072576
0.0010063043
0.0010052757
0.0010041937
0.0010033161
0.0010026255
0.0010020967
0.0010016985
0.001001386
0.0010011027
0.0010008332
0.0010006144
0.0010003913
0.00099984934
1.296527e-07
8.2134844e-06
3.6849848e-06
4.8612474e-06
3.6145256e-06
4.0405531e-06
4.007208e-06
3.8517082e-06
4.1257808e-06
3.7484534e-06
3.6391717e-06
3.5213321e-06
3.4648824e-06
3.444965e-06
3.459783e-06
3.4910159e-06
3.5560074e-06
3.6505799e-06
3.7739511e-06
3.9263659e-06
4.1092893e-06
4.324734e-06
4.5760237e-06
4.8665662e-06
5.1897767e-06
5.570327e-06
6.0068374e-06
6.5074099e-06
7.0822493e-06
7.7435324e-06
8.5061116e-06
9.3891936e-06
1.0416294e-05
1.1616893e-05
1.302723e-05
1.4690881e-05
1.6664711e-05
1.9017759e-05
2.1836847e-05
2.5232027e-05
2.9334823e-05
3.4312617e-05
4.0370754e-05
4.7757464e-05
5.6782077e-05
6.7824261e-05
8.2073868e-05
9.8793971e-05
0.00011931695
0.00014453384
0.00017551831
0.00021564744
0.00026286514
0.00032098523
0.0003925353
0.00048520051
0.00059456033
0.00072935805
0.00089559562
0.0010119805
0.0010113224
0.0010106336
0.0010099079
0.001009141
0.00100833
0.0010074707
0.0010065551
0.0010055749
0.001004541
0.0010035556
0.0010027826
0.001002174
0.0010017087
0.001001365
0.001001105
0.0010008683
0.0010006284
0.0010004441
0.0010002892
0.00099983361
1.2173642e-07
7.383799e-06
3.2357443e-06
4.2045106e-06
3.2141421e-06
3.4084679e-06
3.5498067e-06
3.2672246e-06
3.3954749e-06
3.1252316e-06
3.0379411e-06
2.9677002e-06
2.9438321e-06
2.952414e-06
2.9763541e-06
3.0377194e-06
3.1275047e-06
3.2444992e-06
3.38878e-06
3.561279e-06
3.7639693e-06
3.9991227e-06
4.2622684e-06
4.5705327e-06
4.9231339e-06
5.3257429e-06
5.7851946e-06
6.3098956e-06
6.9102729e-06
7.5992856e-06
8.392273e-06
9.3092688e-06
1.0374864e-05
1.1620019e-05
1.3027168e-05
1.4740266e-05
1.6774608e-05
1.9202835e-05
2.2248612e-05
2.5790101e-05
3.0074489e-05
3.5277115e-05
4.1616941e-05
4.9355507e-05
5.8817887e-05
7.0406635e-05
8.4615787e-05
0.00010205184
0.00012456304
0.00015108981
0.00018369954
0.00022380622
0.00027574047
0.00033695708
0.00041233613
0.00051010852
0.00062535641
0.00076741763
0.00094259737
0.0010115357
0.0010108402
0.0010101108
0.0010093464
0.0010085414
0.0010076925
0.0010067974
0.0010058521
0.0010048537
0.0010038285
0.0010029883
0.0010023114
0.0010017785
0.0010013718
0.001001076
0.0010008613
0.0010006702
0.0010004652
0.0010003098
0.0010002161
0.00099995821
1.1534753e-07
5.3593478e-06
2.850875e-06
3.6093482e-06
2.8660309e-06
2.8256599e-06
3.0937357e-06
2.7377299e-06
2.7685034e-06
2.593375e-06
2.5351425e-06
2.50398e-06
2.5024592e-06
2.5302226e-06
2.5898961e-06
2.6773803e-06
2.7907452e-06
2.9297661e-06
3.0952474e-06
3.2885511e-06
3.5069591e-06
3.7613341e-06
4.0517967e-06
4.3823804e-06
4.7579195e-06
5.1842912e-06
5.6686555e-06
6.2197555e-06
6.8483542e-06
7.5513805e-06
8.372808e-06
9.3211118e-06
1.0421884e-05
1.1707195e-05
1.3217157e-05
1.5001929e-05
1.7123536e-05
1.9659633e-05
2.2706587e-05
2.6383487e-05
3.0838226e-05
3.6514092e-05
4.3173355e-05
5.1310831e-05
6.1268411e-05
7.3471218e-05
8.8442313e-05
0.0001068258
0.00013060167
0.00015859023
0.00019301226
0.00023535961
0.00029026943
0.00035493345
0.00043458212
0.00053271644
0.00065984702
0.00081004644
0.00099525937
0.0010110777
0.0010103439
0.0010095768
0.0010087764
0.0010079369
0.0010070536
0.0010061247
0.0010051512
0.0010041464
0.0010032168
0.0010024857
0.0010018988
0.0010014356
0.0010010838
0.0010008309
0.0010006523
0.0010005001
0.0010003381
0.0010002208
0.0010001635
0.0010000022
1.1013613e-07
3.9862862e-06
2.5051826e-06
3.0589686e-06
2.429211e-06
2.3354418e-06
2.6165235e-06
2.2669751e-06
2.2479694e-06
2.1471969e-06
2.1211574e-06
2.1169404e-06
2.1448457e-06
2.2041756e-06
2.2908022e-06
2.4023386e-06
2.5380646e-06
2.6984414e-06
2.8821096e-06
3.0950212e-06
3.3381871e-06
3.6144379e-06
3.9272291e-06
4.2807704e-06
4.6801461e-06
5.1314899e-06
5.6422528e-06
6.2122046e-06
6.8675524e-06
7.6157259e-06
8.4740018e-06
9.4638448e-06
1.061231e-05
1.1953377e-05
1.3529651e-05
1.5394236e-05
1.7613155e-05
2.0268563e-05
2.3462696e-05
2.7322436e-05
3.2005044e-05
3.7704476e-05
4.499291e-05
5.3568565e-05
6.406988e-05
7.694629e-05
9.2751293e-05
0.00011216779
0.00013603806
0.00016688434
0.00020327762
0.0002480646
0.00030320517
0.00037460014
0.00045889454
0.00056277925
0.0006974877
0.00085660544
0.0010113676
0.001010609
0.0010098374
0.0010090352
0.0010082009
0.0010073304
0.0010064175
0.0010054595
0.0010044661
0.0010034754
0.0010026816
0.0010020463
0.0010015405
0.0010011408
0.0010008399
0.0010006274
0.0010004775
0.0010003528
0.001000229
0.0010001542
0.0010001276
0.0010000308
1.0457549e-07
3.5218903e-06
2.1397131e-06
2.551232e-06
2.0707686e-06
1.9248825e-06
2.1295442e-06
1.8564797e-06
1.8272172e-06
1.7831047e-06
1.7849111e-06
1.8127631e-06
1.8731773e-06
1.95982e-06
2.0702538e-06
2.2035566e-06
2.3599357e-06
2.5385558e-06
2.7441217e-06
2.9777546e-06
3.2419772e-06
3.5398522e-06
3.8750464e-06
4.2519418e-06
4.6758031e-06
5.1529886e-06
5.6849252e-06
6.2909301e-06
6.9784133e-06
7.7618355e-06
8.6593875e-06
9.6937823e-06
1.089359e-05
1.2294734e-05
1.394243e-05
1.5893303e-05
1.8217667e-05
2.100269e-05
2.4356808e-05
2.8414083e-05
3.334097e-05
3.9628074e-05
4.7020742e-05
5.6064334e-05
6.714602e-05
8.0740789e-05
9.743404e-05
0.00011794794
0.00014449992
0.00017577757
0.00021425958
0.00026163195
0.00031997243
0.00039553167
0.00048476448
0.00059477241
0.00073750909
0.0009061625
0.0010109151
0.0010101319
0.0010093259
0.0010084915
0.0010076254
0.0010067257
0.0010057884
0.0010048086
0.0010038043
0.0010029162
0.0010022164
0.0010016647
0.0010012313
0.0010008902
0.0010006334
0.0010004595
0.0010003347
0.0010002295
0.0010001346
0.0010000992
0.0010001005
0.0010000485
1.0051316e-07
3.037525e-06
1.8242247e-06
2.0398899e-06
1.774714e-06
1.5748173e-06
1.6827154e-06
1.5113837e-06
1.4985476e-06
1.499043e-06
1.5285055e-06
1.5898205e-06
1.676998e-06
1.7865115e-06
1.917415e-06
2.0699054e-06
2.2439332e-06
2.4425875e-06
2.6674433e-06
2.9208224e-06
3.2055019e-06
3.5247302e-06
3.8823146e-06
4.2827609e-06
4.7314718e-06
5.2314303e-06
5.79594e-06
6.4324999e-06
7.1531802e-06
7.9731272e-06
8.9115652e-06
9.992519e-06
1.1246236e-05
1.27107e-05
1.4433687e-05
1.6475287e-05
1.8910632e-05
2.1831992e-05
2.5354616e-05
2.962043e-05
3.5034388e-05
4.1406721e-05
4.919169e-05
5.8721939e-05
7.0405473e-05
8.4745051e-05
0.00010235933
0.00012401197
0.00015200231
0.00018502096
0.00022565889
0.00027569922
0.00033734608
0.00041716244
0.00051150706
0.00062786706
0.00077888382
0.00095746579
0.0010104621
0.0010096528
0.001008816
0.0010079528
0.001007058
0.0010061298
0.0010051705
0.0010041885
0.0010032144
0.0010024435
0.0010018227
0.0010013366
0.001000964
0.0010006809
0.0010004585
0.001000319
0.0010002172
0.0010001288
0.001000057
0.0010000537
0.0010000824
0.0010000612
9.8101914e-08
2.5361838e-06
1.5500873e-06
1.5529292e-06
1.5043456e-06
1.2772161e-06
1.320727e-06
1.2377849e-06
1.2534405e-06
1.2852593e-06
1.3481516e-06
1.4352861e-06
1.5436139e-06
1.6717959e-06
1.8200832e-06
1.989483e-06
2.1808579e-06
2.3971712e-06
2.6402568e-06
2.9126616e-06
3.2173088e-06
3.5575662e-06
3.9373441e-06
4.3612462e-06
4.8347795e-06
5.3646398e-06
5.9590814e-06
6.6283651e-06
7.3768374e-06
8.2338658e-06
9.2139008e-06
1.0342363e-05
1.1651293e-05
1.3180927e-05
1.4981644e-05
1.7186194e-05
1.975429e-05
2.2837925e-05
2.6559772e-05
3.1071216e-05
3.6558767e-05
4.325187e-05
5.1434073e-05
6.1454545e-05
7.3743513e-05
8.8831465e-05
0.00010737142
0.00013130563
0.00015955706
0.00019431752
0.00023711058
0.00028981902
0.00035813024
0.0004387944
0.00053826821
0.00066102153
0.00082031077
0.0010089252
0.0010100182
0.0010091817
0.0010083166
0.0010074271
0.0010065087
0.0010055571
0.0010045718
0.0010035812
0.001002732
0.0010020481
0.0010014996
0.0010010648
0.0010007321
0.0010005046
0.0010003131
0.0010001998
0.0010001188
0.0010000483
0.00099999858
0.0010000175
0.001000067
0.0010000632
9.8130716e-08
2.0403615e-06
1.3193329e-06
1.1798709e-06
1.2356867e-06
1.0295438e-06
1.0558856e-06
1.0362663e-06
1.0805667e-06
1.141742e-06
1.2283779e-06
1.3346816e-06
1.4595875e-06
1.6032448e-06
1.7667134e-06
1.9514918e-06
2.159108e-06
2.3921259e-06
2.6527207e-06
2.9435501e-06
3.2676228e-06
3.6283845e-06
4.02983e-06
4.4766618e-06
4.9745106e-06
5.5302338e-06
6.1523137e-06
6.8513573e-06
7.6407184e-06
8.5372853e-06
9.56241e-06
1.0743141e-05
1.2113572e-05
1.3716586e-05
1.5605886e-05
1.7848484e-05
2.0527795e-05
2.3747627e-05
2.763647e-05
3.2353425e-05
3.8095046e-05
4.5103194e-05
5.3673757e-05
6.4173392e-05
7.7052655e-05
9.3635996e-05
0.00011321718
0.00013728728
0.00016689496
0.00020333604
0.00024821021
0.00030634449
0.00037499007
0.00045962892
0.00056406238
0.00069974719
0.00086024982
0.0010104461
0.0010095931
0.0010087311
0.0010078407
0.0010069248
0.0010059835
0.0010050189
0.0010040368
0.0010030714
0.0010023243
0.0010017187
0.0010012372
0.0010008562
0.0010005603
0.0010003429
0.0010001965
0.0010001
0.001000035
0.0009999824
0.00099995649
0.00099999402
0.0010000574
0.0010000633
1.0141643e-07
1.5832718e-06
1.1301076e-06
9.0785407e-07
1.0794133e-06
8.2508004e-07
8.742016e-07
8.9946587e-07
9.6624139e-07
1.0501366e-06
1.1537376e-06
1.274627e-06
1.4131952e-06
1.5704362e-06
1.7478174e-06
1.9470524e-06
2.1700886e-06
2.4189538e-06
2.6962794e-06
3.0047027e-06
3.3472965e-06
3.7275782e-06
4.1496284e-06
4.618257e-06
5.1392315e-06
5.7195871e-06
6.3680446e-06
7.0955796e-06
7.916054e-06
8.847076e-06
9.9109327e-06
1.113593e-05
1.255778e-05
1.4221433e-05
1.6183191e-05
1.8513339e-05
2.1299277e-05
2.4649388e-05
2.8697759e-05
3.361001e-05
3.9860791e-05
4.7220889e-05
5.6221348e-05
6.7246459e-05
8.0768738e-05
9.7370436e-05
0.00011776965
0.00014285232
0.00017370893
0.00021367095
0.00026080318
0.00031886402
0.00039043532
0.00047872382
0.00059345092
0.00072910681
0.00089680962
0.0010100568
0.0010091909
0.001008311
0.001007403
0.0010064662
0.0010054994
0.0010045083
0.0010035223
0.001002669
0.0010019872
0.0010014433
0.0010010142
0.0010006784
0.001000423
0.0010002271
0.0010001021
0.0010000197
0.00099996526
0.00099992725
0.00099992285
0.00099997689
0.00100005
0.0010000624
1.0811493e-07
1.2368493e-06
9.6771187e-07
7.647697e-07
7.7091077e-07
7.0554879e-07
7.5166723e-07
8.1209967e-07
8.9567027e-07
9.9526219e-07
1.1115786e-06
1.2445343e-06
1.3951913e-06
1.5648581e-06
1.7551215e-06
1.9677518e-06
2.2047295e-06
2.468261e-06
2.7608179e-06
3.0851811e-06
3.4445063e-06
3.8424119e-06
4.2831037e-06
4.7715511e-06
5.3137326e-06
5.9148563e-06
6.5870085e-06
7.3401888e-06
8.19609e-06
9.1615698e-06
1.0264924e-05
1.1535832e-05
1.3011715e-05
1.4739605e-05
1.6778373e-05
1.9201404e-05
2.2099883e-05
2.5586798e-05
2.9801831e-05
3.4917418e-05
4.1146199e-05
4.8750221e-05
5.8052122e-05
6.9447359e-05
8.3424884e-05
0.00010058648
0.00012275741
0.00014888759
0.00018102556
0.0002205796
0.00026929147
0.00032932178
0.00040335151
0.00049941647
0.00061308224
0.00075357095
0.00092739982
0.0010097038
0.0010088229
0.0010079269
0.0010070072
0.0010060622
0.0010050904
0.001004098
0.0010031237
0.0010023521
0.001001725
0.0010012261
0.0010008331
0.001000531
0.0010003231
0.0010001345
0.0010000274
0.00099995568
0.00099990906
0.00099988171
0.0009998921
0.00099995848
0.0010000427
0.001000058
1.2252309e-07
1.208871e-06
8.0934349e-07
5.6793878e-07
6.1245521e-07
6.152419e-07
6.7910422e-07
7.5797855e-07
8.5478793e-07
9.6628402e-07
1.0934789e-06
1.2371821e-06
1.3986816e-06
1.5793806e-06
1.7808929e-06
2.0050158e-06
2.2537594e-06
2.5293719e-06
2.8343751e-06
3.1716089e-06
3.5442922e-06
3.9561093e-06
4.4113339e-06
4.9150055e-06
5.4731818e-06
6.0932826e-06
6.7845481e-06
7.5586263e-06
8.4303183e-06
9.4184699e-06
1.0547043e-05
1.1846464e-05
1.3355138e-05
1.5121358e-05
1.7205546e-05
1.9682992e-05
2.2647191e-05
2.6213891e-05
3.0526061e-05
3.5759997e-05
4.2132952e-05
5.0270111e-05
5.9859968e-05
7.1604268e-05
8.6006182e-05
0.00010368472
0.00012540393
0.00015210734
0.00018496124
0.00022540704
0.00027523433
0.00033977054
0.00041610305
0.00051032714
0.00062675594
0.00077078395
0.00094916194
0.0010094142
0.0010085154
0.0010075994
0.0010066621
0.0010057028
0.0010047231
0.0010037388
0.001002828
0.0010021123
0.001001532
0.0010010708
0.001000707
0.0010004282
0.0010002169
0.0010000691
0.00099996853
0.00099990498
0.00099986464
0.00099984483
0.00099986013
0.00099992308
0.0010000058
0.0010000353
1.1483494e-07
7.1611276e-07
6.4110133e-07
4.7015499e-07
5.1314785e-07
5.5903288e-07
6.3773128e-07
7.3004121e-07
8.3735597e-07
9.589982e-07
1.0960487e-06
1.2495508e-06
1.4208197e-06
1.6113157e-06
1.8226872e-06
2.0567785e-06
2.315654e-06
2.6015909e-06
2.9172204e-06
3.26543e-06
3.6495063e-06
4.0732022e-06
4.5408618e-06
5.0575983e-06
5.6295505e-06
6.2642326e-06
6.9710021e-06
7.7616639e-06
8.6583014e-06
9.6691125e-06
1.0823392e-05
1.2152324e-05
1.3695217e-05
1.5501457e-05
1.7632774e-05
2.0166043e-05
2.3196667e-05
2.6842719e-05
3.1250028e-05
3.6598415e-05
4.3109343e-05
5.1055268e-05
6.0771129e-05
7.2670384e-05
8.7261762e-05
0.00010517288
0.00012717854
0.00015558973
0.00018912701
0.00023040771
0.000281261
0.00034395656
0.00042131985