/*--------------------------------*- C++ -*----------------------------------*\
| =========                 |                                                 |
| \\      /  F ield         | OpenFOAM: The Open Source CFD Toolbox           |
|  \\    /   O peration     | Version:  2512                                  |
|   \\  /    A nd           | Website:  www.openfoam.com                      |
|    \\/     M anipulation  |                                                 |
\*---------------------------------------------------------------------------*/
FoamFile
{
    version     2.0;
    format      ascii;
    arch        "LSB;label=32;scalar=64";
    class       volScalarField;
    location    "0.144";
    object      omega;
}
// * * * * * * * * * * * * * * * * * * * * * * * * * * * * * * * * * * * * * //

dimensions      [0 0 -1 0 0 0 0];

internalField   nonuniform List<scalar> 
16000
(
1452.1472
1944.1806
1079.2821
643.9766
453.10992
315.4635
239.19589
180.44145
145.43265
117.73796
100.12424
85.706798
75.057624
66.137019
58.861861
52.726329
47.545407
43.124547
39.324646
36.034275
33.169943
30.661042
28.449415
26.488722
24.741557
23.178824
21.776422
20.515736
19.380993
18.357803
17.433137
16.596714
15.840348
15.157106
14.541074
13.986754
13.488974
13.042846
12.644283
12.289847
11.975669
11.697665
11.452864
11.238566
11.051706
10.889158
10.748493
10.627408
10.523693
10.435256
10.36022
10.296948
10.24391
10.199762
10.163327
10.133704
10.110295
10.092861
10.081716
10.077507
10.078078
10.078188
10.077719
10.076867
10.075496
10.073551
10.070987
10.067776
10.063857
10.059108
10.053298
10.045987
10.036945
10.028494
10.022091
10.01716
10.013715
10.01735
10.015967
10.031759
1470.0646
1922.2163
1071.4079
643.98531
453.40959
318.38812
240.31119
182.33891
146.27732
118.78081
100.67425
86.278511
75.423023
66.454409
59.091418
52.904899
47.676247
43.219916
39.392166
36.079641
33.198051
30.676519
28.455903
26.48915
24.737815
23.172419
21.768158
20.506058
19.370419
18.347095
17.422787
16.586858
15.830978
15.148098
14.532337
13.978262
13.48081
13.035033
12.636653
12.282348
11.968546
11.690943
11.44641
11.232366
11.045923
10.883801
10.743532
10.622827
10.519502
10.431459
10.35679
10.293867
10.24116
10.197323
10.161158
10.13172
10.108371
10.090772
10.078988
10.073585
10.07369
10.073755
10.073189
10.072251
10.07081
10.068801
10.066175
10.062901
10.058929
10.054142
10.048348
10.041168
10.032342
10.024377
10.018403
10.013776
10.01107
10.012887
10.016494
10.032844
1480.2609
1909.8304
1057.5693
640.14095
450.23844
318.62712
239.26928
182.54185
145.85987
118.9562
100.53607
86.303703
75.330021
66.364888
58.96686
52.767497
47.526905
43.064541
39.234904
35.922888
33.043768
30.526804
28.312256
26.352828
24.609282
23.052046
21.655847
20.401434
19.273124
18.257122
17.340064
16.511044
15.761659
15.084766
14.474526
13.925553
13.432918
12.991719
12.597496
12.2469
11.936739
11.662592
11.421149
11.209849
11.026056
10.866384
10.728316
10.609582
10.508032
10.421597
10.348347
10.286679
10.235072
10.192205
10.156877
10.128126
10.105291
10.088011
10.076224
10.070206
10.069718
10.069657
10.068944
10.067866
10.0663
10.064177
10.061439
10.058057
10.053985
10.049112
10.043267
10.036149
10.027513
10.020107
10.014608
10.010465
10.008153
10.009299
10.014922
10.029877
1485.2292
1906.3161
1046.683
636.58276
446.67988
318.68433
237.93768
182.60728
145.30267
119.03331
100.34656
86.267654
75.196214
66.228426
58.802196
52.591624
47.342296
42.876267
39.047153
35.73792
32.86326
30.352721
28.145927
26.195465
24.461235
22.913618
21.5269
20.281534
19.161763
18.154193
17.245475
16.424409
15.682532
15.012583
14.408767
13.865729
13.378662
12.942769
12.553438
12.207158
11.901178
11.631022
11.393193
11.185046
11.004273
10.847394
10.711831
10.595327
10.495763
10.411124
10.339445
10.27916
10.228754
10.186936
10.152514
10.124507
10.102231
10.085301
10.0736
10.067259
10.066101
10.065861
10.064968
10.063717
10.061994
10.059727
10.056852
10.053334
10.049136
10.044152
10.038226
10.031146
10.022673
10.015838
10.010846
10.00721
10.00514
10.006111
10.01331
10.024857
1502.117
1912.2839
1038.534
633.13858
442.37087
317.99948
235.92617
182.18306
144.37229
118.83404
99.970243
86.056047
74.924532
65.960641
58.523377
52.312382
47.065132
42.60434
38.78369
35.48434
32.620308
30.121659
27.927431
25.990286
24.269328
22.734966
21.361113
20.127972
19.019618
18.023083
17.125163
16.314365
15.582194
14.921252
14.325801
13.790497
13.31064
12.881585
12.498656
12.158016
11.857389
11.592324
11.35917
11.155067
10.978095
10.824722
10.692297
10.578573
10.481456
10.399015
10.329247
10.27063
10.221663
10.181087
10.147734
10.120614
10.099022
10.082558
10.071071
10.064584
10.062866
10.062384
10.061277
10.059815
10.0579
10.055457
10.052413
10.04873
10.044375
10.039253
10.033207
10.026135
10.017902
10.01165
10.007189
10.004058
10.00223
10.003209
10.01111
10.020637
1518.0605
1927.0203
1034.3782
630.36097
438.47429
316.68901
233.44313
181.35191
143.17977
118.39835
99.451965
85.691108
74.534463
65.578721
58.144773
51.942805
46.706697
42.258738
38.453218
35.169818
32.321704
29.839676
27.662214
25.742078
24.037884
22.520011
21.162042
19.944001
18.849691
17.866565
16.981698
16.183287
15.462844
14.812809
14.227507
13.701601
13.230471
12.809634
12.434486
12.100745
11.806531
11.547516
11.320001
11.120741
10.948251
10.799
10.670256
10.559788
10.465502
10.385594
10.318016
10.261303
10.213964
10.174783
10.142626
10.116504
10.095693
10.079776
10.068588
10.06208
10.05994
10.059167
10.057814
10.056112
10.053975
10.051326
10.048091
10.044217
10.03968
10.034401
10.028211
10.021098
10.013229
10.007576
10.003663
10.001029
9.999484
10.000543
10.008382
10.016335
1528.269
1947.5805
1034.2014
627.69958
434.65978
314.74939
230.875
180.14703
141.85273
117.73344
98.801022
85.171542
74.021936
65.080189
57.662755
51.479496
46.263505
41.836122
38.052322
34.791089
31.964383
29.503916
27.347735
25.448032
23.764312
22.266401
20.927564
19.727727
18.650332
17.683202
16.813844
16.030124
15.323607
14.68654
14.113317
13.598607
13.13785
12.726699
12.360767
12.035426
11.748744
11.496742
11.275847
11.082277
10.914944
10.770421
10.64589
10.539144
10.448056
10.370998
10.30587
10.251277
10.205743
10.168096
10.137247
10.112219
10.092276
10.07698
10.066161
10.059732
10.057294
10.056189
10.054562
10.052592
10.050205
10.047328
10.043878
10.039795
10.035052
10.029597
10.023252
10.016034
10.008727
10.003682
10.000321
9.9981753
9.9969597
9.9981287
10.00561
10.012523
1541.0393
1971.2342
1035.0342
624.67951
430.81549
312.1622
228.24822
178.70259
140.3748
116.84752
98.032415
84.504868
73.386961
64.46617
57.076627
50.921243
45.733912
41.33485
37.578548
34.345661
31.545972
29.112107
26.982102
25.104378
23.445003
21.970782
20.654591
19.476352
18.419062
17.470802
16.619685
15.853214
15.163068
14.541252
13.982245
13.480713
13.032152
12.632305
12.277053
11.962371
11.68439
11.440341
11.227016
11.040096
10.87856
10.739322
10.619505
10.516913
10.429345
10.355418
10.292964
10.240675
10.197095
10.161096
10.131644
10.10779
10.088785
10.074173
10.063772
10.057495
10.05487
10.053402
10.051478
10.049217
10.046559
10.043432
10.039751
10.035444
10.030477
10.024826
10.018345
10.010962
10.004436
10.000009
9.9971973
9.9955297
9.9946868
9.9960082
10.002841
10.00905
1553.2639
1995.6109
1031.7767
620.85829
425.8687
308.88312
224.61901
176.85994
138.47901
115.78354
97.140711
83.688944
72.621798
63.731421
56.380984
50.262034
45.111989
40.749602
37.023676
33.825261
31.058557
28.65669
26.558656
24.711772
23.081212
21.634865
20.345136
19.192092
18.15825
17.231811
16.401683
15.65501
14.983649
14.37932
13.83659
13.350128
12.915484
12.528488
12.185078
11.881208
11.613264
11.378186
11.173369
10.994588
10.839475
10.706019
10.59145
10.493405
10.409644
10.33908
10.279483
10.229646
10.188139
10.153874
10.125885
10.103259
10.085248
10.071369
10.061424
10.055343
10.052616
10.050765
10.048526
10.045958
10.043011
10.039617
10.035691
10.031153
10.025952
10.020081
10.013499
10.006105
10.000398
9.9965979
9.9943268
9.9931269
9.9926666
9.9941404
10.00021
10.005979
1568.3073
2018.7433
1022.1853
615.97663
419.2098
305.19467
220.22718
174.5792
136.63416
114.52613
96.116121
82.718435
71.718418
62.867936
55.567698
49.488877
44.383688
40.066834
36.385895
33.230549
30.504508
28.141095
26.080712
24.269173
22.672194
21.258074
19.998814
18.874751
17.86792
16.966443
16.160138
15.435937
14.785901
14.201395
13.677083
13.207634
12.788646
12.416039
12.085909
11.794269
11.537423
11.312171
11.116431
10.945683
10.797699
10.670487
10.562029
10.468885
10.389238
10.322217
10.265625
10.218345
10.178994
10.14652
10.120032
10.098667
10.081683
10.068576
10.059115
10.053245
10.050474
10.048232
10.045665
10.042778
10.03953
10.035857
10.031677
10.026902
10.021469
10.01536
10.008677
10.001585
9.9966506
9.9934778
9.9917329
9.9909904
9.9909187
9.9925094
9.997843
10.00302
1579.6691
2039.8416
1011.928
610.05134
410.89989
301.10022
215.68652
172.07678
134.66511
113.08964
94.945497
81.586329
70.664923
61.854949
54.613927
48.596514
43.550018
39.290232
35.663006
32.559347
29.881669
27.563491
25.546975
23.776614
22.218272
20.840925
19.616383
18.525303
17.549269
16.676119
15.896265
15.197279
14.571177
14.008874
13.505138
13.054632
12.653011
12.296261
11.98065
11.702284
11.457556
11.243059
11.057094
10.895106
10.754715
10.633902
10.531208
10.443317
10.368365
10.305019
10.251584
10.206933
10.169787
10.139131
10.114153
10.094054
10.07811
10.065802
10.056847
10.051185
10.048388
10.045757
10.042855
10.039644
10.036087
10.032127
10.027687
10.022675
10.01702
10.010683
10.003838
9.9974254
9.993227
9.9906712
9.9894332
9.9891335
9.9894773
9.9911829
9.9958439
10.000482
1592.3061
2060.2392
997.11946
602.47494
401.33003
296.58429
210.94944
169.32564
132.67389
111.47411
93.601051
80.261635
69.422922
60.685282
53.522559
47.581044
42.606774
38.415952
34.852977
31.81047
29.189605
26.923846
24.957625
23.234465
21.720272
20.384107
19.198784
18.144927
17.203677
16.362579
15.610523
14.939523
14.340018
13.802349
13.321375
12.891744
12.509186
12.169736
11.86987
11.605811
11.374082
11.171855
10.996141
10.843307
10.710939
10.596889
10.500176
10.417561
10.346974
10.287431
10.237496
10.195556
10.160641
10.131803
10.108315
10.089464
10.074549
10.063048
10.054623
10.049152
10.046304
10.043297
10.040057
10.036521
10.032654
10.028405
10.023702
10.018454
10.012588
10.006086
9.9990682
9.9936506
9.9901499
9.9881913
9.98744
9.9875561
9.988326
9.9901927
9.9942596
9.9984577
1604.5409
2078.5503
978.47524
594.02079
391.47064
291.66891
206.14207
166.37486
130.62728
109.65838
92.016723
78.726652
67.996397
59.352032
52.286358
46.438083
41.550529
37.441937
33.954512
30.982935
28.428025
26.222608
24.31301
22.643507
21.17963
19.887428
18.745994
17.733819
16.831459
16.026691
15.308357
14.668025
14.097585
13.586777
13.130496
12.72336
12.361235
12.040166
11.756887
11.50783
11.289434
11.098796
10.933816
10.790503
10.666494
10.559914
10.469161
10.391934
10.325935
10.270082
10.223257
10.1843
10.151658
10.124627
10.102585
10.084936
10.071016
10.060308
10.052439
10.047156
10.044172
10.040811
10.037236
10.03338
10.029207
10.024668
10.019705
10.014229
10.008156
10.00157
9.9948851
9.9902752
9.9874357
9.9860431
9.9857595
9.9862569
9.9874059
9.9894883
9.9931464
9.9969751
1616.6676
2090.9425
955.92583
584.99329
381.11253
286.39428
201.34075
163.2284
128.45463
107.54565
90.17489
76.96919
66.37148
57.846115
50.898585
45.162429
40.377925
36.365666
32.966455
30.075898
27.596906
25.460812
23.612007
22.002798
20.59629
19.3578
18.265548
17.299844
16.440636
15.675773
14.993906
14.38679
13.847222
13.36514
12.935168
12.551823
12.211208
11.909342
11.643203
11.409583
11.205016
11.026479
10.872244
10.738494
10.622763
10.523002
10.438211
10.366317
10.305304
10.253255
10.209417
10.173026
10.142878
10.117673
10.097026
10.080511
10.067533
10.057572
10.050273
10.045219
10.041956
10.038265
10.034363
10.030196
10.025725
10.020903
10.015681
10.009994
10.003748
9.997042
9.9912011
9.987331
9.9850938
9.9842237
9.9843873
9.9852384
9.9867031
9.9890401
9.9925198
9.9961375
1628.8505
2092.0713
929.66639
575.32736
370.3723
280.78803
196.61958
159.80467
126.03397
105.14106
88.04688
74.970556
64.534996
56.156902
49.351523
43.748774
39.085899
35.184893
31.888341
29.086535
26.693832
24.637398
22.863758
21.322933
19.980764
18.801673
17.763918
16.848795
16.036616
15.315076
14.672623
14.100941
13.592205
13.140129
12.737642
12.378973
12.060605
11.778512
11.52982
11.31182
11.121172
10.955586
10.811985
10.687678
10.580306
10.487539
10.40849
10.34154
10.284891
10.237035
10.196196
10.16217
10.134134
10.110955
10.091688
10.076226
10.064125
10.054838
10.048075
10.043343
10.039633
10.03563
10.031414
10.026947
10.022192
10.017101
10.011624
10.005729
9.9994099
9.9928379
9.9880142
9.9848264
9.9831298
9.9827269
9.9833098
9.9844943
9.9862011
9.9887927
9.9923225
9.9958579
1641.2006
2070.4838
899.96166
565.05225
359.28683
274.85571
191.97195
155.97518
123.28746
102.39898
85.602132
72.707398
62.470384
54.272915
47.637596
42.191623
37.672003
33.894159
30.716423
28.024499
25.732254
23.766847
22.077272
20.61307
19.341787
18.228317
17.250091
16.387408
15.625255
14.949601
14.34856
13.814424
13.339633
12.917981
12.543471
12.20974
11.913766
11.651551
11.42016
11.217608
11.040288
10.88626
10.75317
10.638059
10.538879
10.453611
10.380228
10.318033
10.265348
10.221156
10.183649
10.151912
10.125744
10.104302
10.086579
10.072111
10.060819
10.052131
10.045785
10.041311
10.037199
10.03289
10.028375
10.023624
10.018599
10.013257
10.007546
10.001443
9.9950832
9.9892804
9.9852977
9.9827567
9.9815437
9.9815458
9.9825038
9.9840048
9.9859021
9.988702
9.9924693
9.9960525
1653.8034
2035.2258
868.98435
554.21334
347.91203
268.50943
187.0887
151.71091
120.09984
99.270242
82.80562
70.154029
60.161115
52.184311
45.750434
40.482131
36.129745
32.506409
29.468478
26.902337
24.725038
22.862447
21.266297
19.886603
18.689756
17.646574
16.732436
15.92791
15.217721
14.589603
14.031031
13.534858
13.093871
12.702371
12.355395
12.046304
11.772346
11.529813
11.315434
11.127942
10.963712
10.820816
10.697662
10.591273
10.499571
10.420899
10.353571
10.295967
10.246976
10.206089
10.171504
10.142305
10.117842
10.097932
10.08155
10.068178
10.057625
10.04949
10.043445
10.039107
10.034644
10.030042
10.025244
10.020225
10.014945
10.009369
10.003458
9.9972174
9.9909119
9.9862427
9.9830324
9.9810974
9.980326
9.9806728
9.9819398
9.983726
9.9858153
9.9887824
9.9928291
9.9965769
1666.4845
2004.0382
837.42921
542.73418
336.24875
261.20784
182.04155
146.90555
116.35348
95.694251
79.620366
67.285388
57.591797
49.883614
43.679046
38.63388
34.482835
31.039196
28.16308
25.740299
23.691408
21.942755
20.445023
19.156732
18.042271
17.072733
16.224836
15.479615
14.821919
14.241302
13.725167
13.266688
12.859122
12.496873
12.175174
11.889908
11.637098
11.41365
11.216718
11.043594
10.892001
10.759661
10.645746
10.547596
10.462954
10.390282
10.328106
10.275064
10.229921
10.19202
10.160089
10.133126
10.110496
10.091918
10.076756
10.0644
10.054532
10.046938
10.041126
10.036729
10.031976
10.027094
10.02203
10.01676
10.011244
10.005452
9.9993669
9.9930951
9.9875169
9.9836738
9.9811731
9.9798069
9.9794521
9.9800959
9.981595
9.9836019
9.985903
9.9890088
9.993142
9.9971185
1678.7439
1956.0574
804.79401
530.30887
324.19201
252.71331
176.63043
141.43705
111.9344
91.607234
76.012175
64.081667
54.746027
47.359436
41.452182
36.672621
32.758181
29.52137
26.827414
24.563919
22.651197
21.026014
19.637
18.443761
17.413468
16.518766
15.737377
15.051327
14.445319
13.90949
13.434567
13.012474
12.637097
12.303394
12.007062
11.744191
11.511263
11.30527
11.123661
10.964159
10.824701
10.703248
10.597871
10.507304
10.429222
10.362146
10.30472
10.255755
10.21418
10.179025
10.149496
10.124605
10.103707
10.086305
10.072185
10.060672
10.051509
10.044442
10.038909
10.034202
10.029213
10.024071
10.018756
10.01325
10.00752
10.001536
9.9953519
9.9892359
9.9847185
9.9815753
9.979673
9.9788262
9.9788776
9.9797878
9.9814578
9.9835948
9.9860718
9.9893311
9.993454
9.9975939
1689.7787
1894.1893
770.50654
516.43388
310.97141
242.8561
170.53255
135.15905
106.73977
86.951739
71.959065
60.528815
51.646785
44.664955
39.110678
34.640609
30.996357
27.989525
25.490222
23.398553
21.635092
20.138332
18.860366
17.763349
16.816859
15.995676
15.278661
14.648272
14.092729
13.601174
13.165219
12.777551
12.432414
12.125187
11.852139
11.609992
11.395559
11.205923
11.038696
10.891644
10.762926
10.650933
10.554267
10.470568
10.398469
10.33651
10.283408
10.238052
10.199485
10.167158
10.139741
10.116665
10.097292
10.081139
10.06794
10.05715
10.04854
10.041896
10.036607
10.031578
10.026379
10.02101
10.015463
10.009734
10.00381
9.997665
9.991436
9.986188
9.9824532
9.9799349
9.9785075
9.978088
9.9785398
9.9796938
9.9815028
9.9837059
9.9862858
9.9896801
9.9937812
9.9979638
1698.3796
1836.3279
733.6063
500.49976
296.85943
231.42284
163.27509
127.90636
100.69928
81.706758
67.46483
56.676649
48.363056
41.864304
36.717484
32.592707
29.24444
26.480814
24.19163
22.278013
20.666273
19.299081
18.131585
17.12874
16.262915
15.511623
14.854482
14.278116
13.769576
13.318942
12.919094
12.563287
12.246205
11.963504
11.711759
11.488272
11.290582
11.115741
10.961663
10.826178
10.707433
10.604472
10.514913
10.437482
10.370744
10.313406
10.26425
10.22225
10.18655
10.156412
10.130902
10.109419
10.091405
10.076387
10.064021
10.053873
10.045705
10.03934
10.034199
10.028902
10.02351
10.01795
10.012207
10.006266
10.00016
9.9939788
9.9879825
9.9836957
9.9806685
9.9787251
9.9776945
9.9775428
9.9783739
9.979742
9.9816698
9.9839182
9.986558
9.9900384
9.9941282
9.9982442
1701.7698
1775.3427
693.86373
480.77334
281.63453
218.09438
154.39048
119.55606
93.829068
75.9345
62.625222
52.641315
44.996442
39.0462
34.347257
30.589732
27.546967
25.04029
22.963369
21.227719
19.765274
18.523872
17.462659
16.549577
15.759367
15.072015
14.471357
13.943833
13.478463
13.065101
12.697887
12.370855
12.079207
11.818929
11.586678
11.379844
11.197057
11.035314
10.892845
10.767817
10.658428
10.562949
10.479953
10.408081
10.346078
10.292811
10.247181
10.208075
10.175018
10.146861
10.123006
10.102881
10.086022
10.072041
10.060417
10.050861
10.043097
10.036892
10.031749
10.026239
10.020657
10.014929
10.009038
10.002941
9.9966392
9.9903696
9.9853063
9.9816716
9.9792472
9.9778374
9.9772497
9.9772349
9.9783302
9.9798779
9.9819003
9.9842049
9.9869024
9.9904015
9.9944435
9.9984177
1695.1945
1708.5759
650.74277
454.92684
265.12016
202.53753
143.65958
110.15765
86.300331
69.776793
57.633198
48.5731
41.666425
36.304661
32.075284
28.693415
25.955213
23.703058
21.833269
20.268383
18.947354
17.823802
16.861432
16.03166
15.311828
14.683959
14.133704
13.649311
13.221045
12.84102
12.502718
12.201067
11.931818
11.691478
11.477091
11.286117
11.116379
10.966065
10.833442
10.716958
10.61514
10.526474
10.449282
10.382382
10.324553
10.274767
10.232359
10.195973
10.164902
10.138501
10.11612
10.097165
10.081357
10.068106
10.057112
10.048068
10.040737
10.034706
10.029328
10.023674
10.017911
10.012005
10.005967
9.9998055
9.9935607
9.9875022
9.9832159
9.9801285
9.9781382
9.9770864
9.9768486
9.9773064
9.9783894
9.9800742
9.9821529
9.9845161
9.9872913
9.9907936
9.9947573
9.9985597
1672.6303
1630.8729
604.48209
422.2517
247.34282
184.58356
131.3411
100.06219
78.474938
63.562551
52.70851
44.634187
38.492605
33.72932
29.96997
26.957212
24.510515
22.499485
20.823499
19.41617
18.224168
17.207068
16.333306
15.577895
14.920807
14.345928
13.840465
13.394538
12.999499
12.648405
12.335259
12.055577
11.805555
11.582084
11.382547
11.204701
11.04657
10.906378
10.782504
10.673454
10.577922
10.495081
10.422925
10.360382
10.306344
10.259799
10.219838
10.18563
10.156316
10.131338
10.110287
10.092415
10.077334
10.064694
10.054184
10.045566
10.038474
10.032576
10.027028
10.021267
10.015379
10.009324
10.003103
9.9967593
9.9905191
9.9853785
9.9816407
9.9790463
9.9774278
9.9766642
9.9766288
9.977353
9.9785679
9.9803161
9.9824183
9.9848168
9.987659
9.9911609
9.9950351
9.9986743
1625.9302
1538.2185
556.27744
383.53002
229.41676
164.54326
118.14969
89.903268
70.806307
57.608614
48.068776
40.978765
35.587035
31.401063
28.089541
25.425622
23.251034
21.453417
19.95124
18.68353
17.604872
16.68047
15.883241
15.191746
14.588707
14.059874
13.592797
13.179533
12.812391
12.485921
12.194137
11.933108
11.699424
11.490291
11.303352
11.136582
10.988198
10.856595
10.740294
10.637922
10.548187
10.469868
10.401786
10.342655
10.291502
10.24736
10.209416
10.177119
10.149411
10.125752
10.105606
10.088522
10.074081
10.061914
10.051824
10.04342
10.036476
10.030617
10.024909
10.019052
10.013082
10.006971
10.000715
9.9943638
9.9882245
9.9837445
9.980474
9.9782886
9.9770075
9.9764838
9.9764506
9.9774841
9.9787853
9.9805758
9.9826849
9.9850949
9.9879608
9.9914418
9.9952553
9.998737
1547.1286
1435.2083
507.26171
343.54087
205.49339
145.27243
105.01578
80.355181
63.737009
52.218286
43.922194
37.756614
33.056314
29.392778
26.480298
24.12454
22.190203
20.581175
19.227992
18.079696
17.09726
16.250963
15.517526
14.878477
14.318933
13.826761
13.391966
13.006269
12.662948
12.356409
12.082015
11.836117
11.615651
11.418089
11.241287
11.083393
10.942767
10.817911
10.707437
10.610033
10.524474
10.44968
10.384941
10.32865
10.279948
10.237922
10.201761
10.170729
10.144163
10.121419
10.102014
10.08552
10.071649
10.059907
10.050039
10.041792
10.03491
10.029023
10.023152
10.017163
10.011068
10.004857
9.9985448
9.9922586
9.9866104
9.9825565
9.9796371
9.9777333
9.9766946
9.9763698
9.976716
9.9776018
9.979013
9.9808163
9.9829294
9.9853366
9.9881628
9.9915182
9.9951966
9.9986393
1438.9891
1390.4723
461.44609
296.02421
181.77984
127.2422
93.172325
71.91391
57.627916
47.676612
40.480654
35.114639
31.001032
27.772733
25.187834
23.08245
21.342454
19.886222
18.653189
17.601182
16.696548
15.913641
15.232211
14.636065
14.11207
13.649487
13.23943
12.874585
12.549013
12.258243
11.997357
11.763166
11.552864
11.364145
11.195052
11.04389
10.909152
10.789468
10.683557
10.590205
10.50824
10.436517
10.373913
10.319496
10.27232
10.231542
10.19639
10.166203
10.140515
10.118489
10.099692
10.08368
10.070084
10.058582
10.048888
10.04075
10.033911
10.027992
10.022001
10.015896
10.009677
10.003346
9.9969493
9.9907018
9.9855444
9.9817965
9.979151
9.9774628
9.9765895
9.976333
9.9768433
9.9777997
9.9792358
9.9810457
9.9831631
9.9855814
9.9883795
9.9916111
9.9951239
9.9985172
1312.5515
1218.8825
421.89338
253.81473
159.79351
112.24121
83.385773
65.105157
52.803633
44.177768
37.892853
33.163423
29.504413
26.607061
24.267394
22.346615
20.747605
19.400746
18.255012
17.2722
16.423276
15.685639
15.04139
14.476073
13.977813
13.536735
13.14481
12.795295
12.482626
12.202209
11.950278
11.723697
11.519884
11.336677
11.172242
11.024987
10.893491
10.77646
10.672688
10.581043
10.500506
10.430345
10.369005
10.31565
10.269363
10.229325
10.194779
10.165044
10.139511
10.117644
10.098959
10.083035
10.069503
10.058045
10.048381
10.040261
10.033431
10.02751
10.021501
10.015361
10.009091
10.002689
9.9962114
9.989928
9.9850078
9.9814184
9.9789182
9.9773612
9.9766314
9.9764713
9.9769833
9.9779937
9.979444
9.9812592
9.9833866
9.9858161
9.9885823
9.9916988
9.9950618
9.9984203
1202.1084
1095.2087
389.63398
223.33205
143.37737
101.21594
76.139438
60.145404
49.352532
41.719416
36.101799
31.834258
28.502232
25.841459
23.676152
21.885897
20.385857
19.114834
18.027723
17.090624
16.277558
15.568236
14.946521
14.399453
13.916909
13.488571
13.107188
12.766387
12.460936
12.186479
11.939427
11.716821
11.516212
11.335557
11.173122
11.027403
10.897059
10.780864
10.677666
10.586368
10.505916
10.435298
10.373553
10.319747
10.273011
10.232536
10.197575
10.167452
10.141558
10.119349
10.100345
10.084123
10.070313
10.058595
10.048688
10.040341
10.033311
10.027255
10.021342
10.015268
10.00909
10.002793
9.9964248
9.9902189
9.9851967
9.9815677
9.9790356
9.9774625
9.9767313
9.9765767
9.9771026
9.9781097
9.979558
9.9813744
9.9835172
9.9859661
9.988716
9.9917483
9.9950029
9.9983529
1156.2796
1041.3773
365.81462
206.42003
132.59751
93.711412
70.720323
56.187799
46.399613
39.467768
34.350859
30.446148
27.384496
24.929587
22.924177
21.260174
19.861199
18.67199
17.651731
16.769703
16.002357
15.33129
14.741831
14.222042
13.762038
13.353542
12.98954
12.664129
12.372342
12.110039
11.873786
11.660746
11.468576
11.295323
11.139341
10.999212
10.873678
10.761593
10.661887
10.573537
10.495562
10.42701
10.366967
10.314562
10.268968
10.229418
10.195201
10.16567
10.140242
10.118394
10.099662
10.083639
10.069968
10.058337
10.048473
10.040135
10.033081
10.026977
10.020994
10.01486
10.008625
10.002279
9.9958803
9.9897014
9.9849243
9.981413
9.9789671
9.9774364
9.9766956
9.9765016
9.9771362
9.9781132
9.9795587
9.9813701
9.9835172
9.9859718
9.9887151
9.991719
9.994937
9.9983077
37040.197
79712.124
39482.602
10040.157
1235.2897
612.78474
435.86474
350.84064
289.07182
234.87697
191.64484
158.78553
134.27665
116.04018
102.08166
90.726624
81.096831
72.841789
65.753708
59.637526
54.31988
49.664411
45.565709
41.938488
38.717642
35.83864
33.256166
30.930317
28.829286
26.927956
25.204916
23.641093
22.219826
20.926441
19.749416
18.67907
17.706691
16.824564
16.02564
15.303502
14.652557
14.067266
13.542578
13.073935
12.656855
12.287116
11.960899
11.674177
11.423274
11.204839
11.015603
10.852446
10.712391
10.592913
10.491495
10.405882
10.335627
10.280676
10.241042
10.219454
10.212286
10.210266
10.208194
10.205343
10.202058
10.198369
10.19399
10.187379
10.17802
10.167367
10.15243
10.139208
10.110595
10.095013
10.071015
10.072104
10.034677
10.055322
9.9927129
10.015094
22234.771
69706.912
27792.007
4617.0103
940.97625
532.96722
399.7915
321.80604
263.28985
212.14888
174.1494
145.48215
124.32589
108.50833
96.135146
85.792283
76.933661
69.332666
62.793117
57.125623
52.175249
47.824543
43.981188
40.569311
37.527087
34.801457
32.350981
30.13834
28.135447
26.319707
24.671366
23.172747
21.8085
20.565118
19.432291
18.401061
17.463299
16.611835
15.840056
15.141959
14.512315
13.94582
13.437726
12.983715
12.57948
12.221
11.904628
11.626443
11.382941
11.170904
10.987162
10.828699
10.692646
10.576582
10.478076
10.394899
10.326162
10.272541
10.234141
10.213805
10.207254
10.205413
10.203375
10.200594
10.197398
10.193792
10.189684
10.18379
10.175111
10.164928
10.150546
10.13749
10.109738
10.09444
10.070497
10.071783
10.034576
10.055776
9.9932508
10.015511
24187.159
49353.381
16433.12
2352.8795
832.54132
506.52972
388.27327
306.54379
250.83592
201.44991
166.68942
139.56076
119.80724
104.89238
93.098852
83.149574
74.646176
67.3594
61.083583
55.635745
50.871414
46.680511
42.975036
39.6823
36.741502
34.105361
31.733689
29.590116
27.648577
25.887394
24.287505
22.831905
21.505917
20.296622
19.194401
18.190603
17.277421
16.447994
15.695944
15.015511
14.401685
13.849277
13.353747
12.910914
12.516578
12.166853
11.8582
11.586763
11.349164
11.14227
10.962979
10.808355
10.675616
10.562437
10.466309
10.385171
10.317751
10.265158
10.227707
10.208328
10.202236
10.200553
10.198568
10.195869
10.192767
10.18925
10.185239
10.180061
10.172095
10.162407
10.148604
10.135724
10.108902
10.093778
10.069905
10.071373
10.034413
10.056143
9.9938432
10.015986
32006.246
27454.573
8491.1148
1494.4776
760.617
482.88751
374.6694
291.66811
239.64173
190.9158
159.68488
133.73266
115.48328
101.41624
90.195913
80.636446
72.480537
65.489074
59.459736
54.217918
49.628104
45.586792
42.010223
38.828942
35.985376
33.431641
31.133712
29.055336
27.172012
25.462756
23.909172
22.494859
21.205752
20.029467
18.957031
17.980028
17.090958
16.283236
15.55069
14.887788
14.289711
13.751373
13.268435
12.836835
12.452472
12.111589
11.81075
11.546155
11.314557
11.1129
10.93815
10.787449
10.658174
10.547857
10.454179
10.375136
10.309223
10.257679
10.221211
10.202792
10.197182
10.195662
10.193733
10.191122
10.188119
10.184694
10.180765
10.176089
10.168866
10.159697
10.146498
10.13381
10.107933
10.093021
10.069236
10.070878
10.034195
10.056434
9.9944759
10.016498
36406.883
20108.852
5465.1619
1269.5867
723.05764
461.87432
363.86043
279.32885
231.32671
182.78756
154.60942
129.10692
112.17475
98.64014
87.845853
78.576861
70.696517
63.935454
58.099035
53.019763
48.569041
44.648037
41.175969
38.085762
35.321798
32.838791
30.600808
28.577403
26.743607
25.078851
23.565241
22.186832
20.930039
19.78289
18.73695
17.783919
16.916564
16.128511
15.413745
14.766917
14.183359
13.658057
13.186849
12.765761
12.390771
12.058237
11.764805
11.506721
11.280858
11.084223
10.913845
10.76695
10.640995
10.533471
10.442183
10.365186
10.300872
10.250317
10.214792
10.197148
10.192125
10.190759
10.188894
10.186378
10.183475
10.180145
10.176305
10.171908
10.165452
10.156829
10.144253
10.131776
10.106843
10.092182
10.068486
10.070296
10.033927
10.056649
9.9951392
10.017016
38529.813
16974.331
3899.7705
1188.2619
698.48687
442.38151
355.9233
269.16093
224.78151
176.06824
150.55581
125.1209
109.41746
96.22205
85.799464
76.772284
69.129142
62.562688
56.890577
51.950632
47.619808
43.802903
40.42157
37.410734
34.716563
32.295166
30.110712
28.136048
26.346286
24.721332
23.243656
21.897682
20.670233
19.549683
18.528065
17.59713
16.749898
15.980158
15.28202
14.650298
14.080445
13.567496
13.107455
12.696411
12.330411
12.005917
11.719639
11.467864
11.24758
11.055847
10.889765
10.746668
10.623891
10.519115
10.430189
10.35522
10.292612
10.243012
10.208414
10.191584
10.187076
10.185844
10.184048
10.181632
10.178833
10.175599
10.17185
10.167544
10.161842
10.153789
10.141857
10.129607
10.1056
10.091248
10.067651
10.069618
10.033615
10.05679
9.9958222
10.017522
39865.708
14175.415
3113.5492
1137.2321
681.23013
428.24343
350.05629
260.78052
219.63656
170.61181
147.2939
121.7201
107.12924
94.120533
84.024401
75.19372
67.752354
61.349265
55.816519
50.995484
46.767666
43.040668
39.738083
36.796466
34.163427
31.796379
29.660829
27.728247
25.977539
24.388218
22.942889
21.626254
20.425479
19.329226
18.329945
17.419377
16.590787
15.838086
15.155489
14.537949
13.981015
13.479756
13.030332
12.628869
12.271477
11.954709
11.675329
11.429658
11.214794
11.027856
10.866047
10.726538
10.606894
10.504826
10.418232
10.345267
10.284415
10.235781
10.202089
10.186105
10.182031