/*--------------------------------*- C++ -*----------------------------------*\
| =========                 |                                                 |
| \\      /  F ield         | OpenFOAM: The Open Source CFD Toolbox           |
|  \\    /   O peration     | Version:  2512                                  |
|   \\  /    A nd           | Website:  www.openfoam.com                      |
|    \\/     M anipulation  |                                                 |
\*---------------------------------------------------------------------------*/
FoamFile
{
    version     2.0;
    format      ascii;
    arch        "LSB;label=32;scalar=64";
    class       volScalarField;
    location    "0.144";
    object      p;
}
// * * * * * * * * * * * * * * * * * * * * * * * * * * * * * * * * * * * * * //

dimensions      [1 -1 -2 0 0 0 0];

internalField   nonuniform List<scalar> 
16000
(
89608.507
89734.476
89746.246
89880.573
89906.904
90034.018
90084.637
90201.191
90275.065
90386.051
90478.129
90589.073
90695.207
90810.496
90927.69
91050.353
91177.103
91308.547
91444.566
91585.25
91730.613
91880.662
92035.382
92194.734
92358.651
92527.041
92699.78
92876.712
93057.651
93242.373
93430.622
93622.104
93816.495
94013.431
94212.521
94413.341
94615.439
94818.343
95021.558
95224.576
95426.882
95627.955
95827.281
96024.351
96218.676
96409.784
96597.234
96780.613
96959.543
97133.686
97302.744
97466.458
97624.616
97777.044
97923.61
98064.223
98198.828
98327.405
98449.968
98566.56
98677.252
98782.137
98881.328
98974.958
99063.174
99146.141
99224.031
99297.032
99365.34
99429.16
99488.7
99544.182
99595.844
99643.927
99688.616
99730.429
99772.092
99790.779
99880.077
99801.148
89241.152
89384.064
89393.566
89539.844
89567.664
89705.73
89758.665
89886.517
89964.234
90085.356
90183.871
90303.806
90418.319
90542.543
90669.079
90801.316
90938.057
91079.789
91226.433
91378.045
91534.623
91696.146
91862.569
92033.818
92209.788
92390.343
92575.312
92764.492
92957.639
93154.474
93354.68
93557.901
93763.746
93971.788
94181.569
94392.6
94604.37
94816.346
95027.984
95238.73
95448.032
95655.343
95860.13
96061.878
96260.103
96454.348
96644.195
96829.269
97009.234
97183.803
97352.733
97515.827
97672.935
97823.948
97968.799
98107.457
98239.927
98366.245
98486.475
98600.706
98709.049
98811.628
98908.586
99000.079
99086.271
99167.337
99243.458
99314.821
99381.62
99444.054
99502.327
99556.65
99607.238
99654.299
99698.148
99739.556
99776.727
99808.498
99870.573
99818.929
88905.547
89063.957
89073.149
89232.778
89260.836
89412.677
89467.457
89607.681
89690.387
89822.1
89928.478
90058.093
90182.271
90316.459
90453.533
90596.531
90744.461
90897.684
91056.136
91219.833
91388.744
91562.815
91741.963
91926.072
92114.994
92308.544
92506.497
92708.588
92914.513
93123.924
93336.43
93551.603
93768.976
93988.044
94208.275
94429.11
94649.968
94870.26
95089.388
95306.759
95521.789
95733.913
95942.593
96147.325
96347.643
96543.124
96733.395
96918.132
97097.065
97269.974
97436.691
97597.095
97751.114
97898.714
98039.905
98174.726
98303.248
98425.569
98541.807
98652.097
98756.593
98855.454
98948.849
99036.956
99119.954
99198.027
99271.362
99340.146
99404.566
99464.816
99521.089
99573.579
99622.477
99668.01
99710.541
99750.301
99785.753
99821.755
99866.776
99837.212
88607.175
88776.446
88786.293
88961.38
88988.921
89157.058
89214.127
89368.683
89457.247
89601.054
89716.726
89857.325
89992.731
90138.276
90287.329
90442.477
90602.936
90768.949
90940.46
91117.45
91299.86
91487.605
91680.56
91878.566
92081.419
92288.874
92500.639
92716.374
92935.694
93158.166
93383.311
93610.609
93839.502
94069.398
94299.68
94529.709
94758.839
94986.417
95211.803
95434.368
95653.513
95868.672
96079.319
96284.98
96485.231
96679.707
96868.102
97050.171
97225.726
97394.636
97556.827
97712.271
97860.984
98003.026
98138.485
98267.48
98390.155
98506.669
98617.196
98721.921
98821.037
98914.737
99003.216
99086.668
99165.287
99239.263
99308.784
99374.031
99435.187
99492.433
99545.947
99595.897
99642.464
99685.891
99726.429
99763.96
99798.218
99834.151
99869.027
99854.327
88348.705
88532.821
88539.574
88733.313
88759.76
88946.174
89005.397
89176.036
89271.661
89428.921
89555.605
89708.307
89856.37
90014.427
90176.62
90345.048
90519.146
90699.071
90884.772
91076.201
91273.266
91475.834
91683.728
91896.72
92114.534
92336.839
92563.25
92793.332
93026.593
93262.492
93500.444
93739.82
93979.955
94220.162
94459.729
94697.942
94934.087
95167.464
95397.398
95623.247
95844.416
96060.362
96270.601
96474.715
96672.354
96863.238
97047.156
97223.965
97393.586
97555.998
97711.233
97859.371
98000.532
98134.867
98262.556
98383.796
98498.802
98607.797
98711.006
98808.66
98900.987
98988.21
99070.542
99148.194
99221.365
99290.248
99355.028
99415.88
99472.973
99526.476
99576.542
99623.315
99666.976
99707.749
99745.702
99780.686
99813.433
99847.149
99874.937
99871.794
88132.986
88334.639
88339.556
88554.2
88579.691
88786.388
88848.011
89036.48
89140.378
89311.768
89450.622
89615.901
89777.544
89948.983
90125.336
90308.211
90497.219
90692.43
90893.764
91101.115
91314.326
91533.188
91757.436
91986.746
92220.734
92458.958
92700.913
92946.035
93193.704
93443.251
93693.961
93945.082
94195.836
94445.431
94693.069
94937.963
95179.349
95416.496
95648.721
95875.399
96095.97
96309.95
96516.932
96716.593
96908.689
97093.058
97269.616
97438.347
97599.303
97752.588
97898.359
98036.81
98168.168
98292.682
98410.618
98522.252
98627.865
98727.734
98822.133
98911.33
98995.58
99075.129
99150.203
99221.019
99287.781
99350.677
99409.883
99465.563
99517.872
99566.958
99612.947
99655.962
99696.183
99733.769
99768.609
99800.765
99831.564
99861.838
99884.001
99890.388
87960.22
88182.727
88184.949
88424.213
88448.802
88679.756
88744.408
88952.139
89064.211
89249.185
89401.326
89580.023
89756.805
89943.346
90135.737
90335.075
90541.053
90753.632
90972.661
91197.948
91429.239
91666.218
91908.502
92155.641
92407.116
92662.339
92920.655
93181.346
93443.642
93706.72
93969.723
94231.771
94491.968
94749.426
95003.273
95252.672
95496.835
95735.036
95966.624
96191.029
96407.775
96616.481
96816.862
97008.732
97191.993
97366.637
97532.732
97690.415
97839.883
97981.383
98115.197
98241.638
98361.038
98473.74
98580.089
98680.429
98775.096
98864.416
98948.697
99028.232
99103.298
99174.149
99241.019
99304.125
99363.664
99419.816
99472.742
99522.592
99569.501
99613.593
99654.964
99693.721
99730.035
99763.957
99795.247
99824.337
99852.703
99878.614
99896.027
99911.03
87824.82
88071.831
88069.859
88338.741
88360.134
88617.488
88685.239
88912.174
89036.237
89237.608
89406.928
89602.029
89797.082
90001.716
90212.989
90431.576
90657.208
90889.746
91128.95
91374.519
91626.077
91883.171
92145.268
92411.755
92681.941
92955.059
93230.272
93506.683
93783.343
94059.269
94333.454
94604.889
94872.578
95135.554
95392.905
95643.782
95887.419
96123.147
96350.399
96568.725
96777.785
96977.359
97167.335
97347.706
97518.561
97680.074
97832.491
97976.115
98111.3
98238.432
98357.921
98470.19
98575.666
98674.772
98767.919
98855.506
98937.909
99015.484
99088.563
99157.453
99222.435
99283.767
99341.678
99396.375
99448.043
99496.847
99542.931
99586.422
99627.436
99666.064
99702.374
99736.465
99768.48
99798.327
99825.73
99851.57
99877.01
99897.798
99911.236
99934.294
87725.958
88001.424
87995.142
88300.293
88316.09
88602.324
88676.085
88925.288
89066.353
89286.388
89476.379
89690.678
89906.981
90132.746
90365.864
90606.66
90854.834
91110.122
91372.154
91640.48
91914.556
92193.747
92477.321
92764.46
93054.254
93345.721
93637.809
93929.416
94219.406
94506.628
94789.936
95068.213
95340.392
95605.478
95862.566
96110.862
96349.69
96578.511
96796.92
97004.652
97201.576
97387.688
97563.1
97728.028
97882.774
98027.715
98163.285
98289.957
98408.237
98518.64
98621.69
98717.903
98807.781
98891.807
98970.441
99044.113
99113.225
99178.144
99239.208
99296.725
99350.971
99402.19
99450.599
99496.389
99539.725
99580.751
99619.586
99656.338
99691.092
99723.908
99754.83
99783.952
99811.36
99836.809
99860.105
99882.582
99904.611
99919.725
99929.989
99960.622
87667.095
87975.743
87966.077
88308.41
88323.583
88642.539
88727.891
89002.342
89163.304
89404.067
89618.381
89855.082
90095.916
90346.233
90604.527
90870.815
91144.694
91425.731
91713.373
92006.962
92305.73
92608.797
92915.179
93223.793
93533.47
93842.971
94151.007
94456.259
94757.403
95053.14
95342.218
95623.461
95895.795
96158.272
96410.084
96650.581
96879.278
97095.857
97300.162
97492.194
97672.095
97840.13
97996.675
98142.192
98277.212
98402.316
98518.119
98625.251
98724.345
98816.028
98900.909
98979.57
99052.564
99120.409
99183.586
99242.537
99297.665
99349.335
99397.873
99443.571
99486.688
99527.447
99566.041
99602.637
99637.375
99670.371
99701.722
99731.505
99759.778
99786.566
99811.898
99835.858
99858.443
99879.275
99898.374
99917.431
99935.597
99944.762
99952.776
99990.404
87655.218
88003.275
87989.612
88372.662
88391.742
88746.937
88846.931
89148.722
89335.361
89599.695
89842.597
90105.673
90374.833
90653.588
90940.798
91236.191
91539.186
91849.113
92165.16
92486.388
92811.724
93139.972
93469.826
93799.888
94128.684
94454.698
94776.392
95092.241
95400.769
95700.579
95990.39
96269.061
96535.622
96789.29
97029.481
97255.814
97468.107
97666.369
97850.78
98021.675
98179.517
98324.876
98458.405
98580.812
98692.845
98795.269
98888.851
98974.345
99052.481
99123.959
99189.439
99249.537
99304.824
99355.826
99403.018
99446.831
99487.65
99525.817
99561.632
99595.359
99627.227
99657.428
99686.126
99713.457
99739.529
99764.431
99788.23
99810.975
99832.69
99853.371
99873.04
99891.76
99909.404
99925.522
99940.47
99956.091
99969.958
99973.149
99979.994
100024.06
87697.137
88092.04
88074.552
88505.791
88530.033
88924.65
89044.067
89375.108
89593.166
89884.443
90160.416
90454.492
90756.336
91067.939
91388.269
91716.728
92052.448
92394.423
92741.481
93092.298
93445.407
93799.219
94152.044
94502.122
94847.655
95186.844
95517.936
95839.26
96149.274
96446.603
96730.075
96998.742
97251.904
97489.105
97710.14
97915.033
98104.021
98277.526
98436.13
98580.537
98711.551
98830.04
98936.914
99033.099
99119.519
99197.079
99266.653
99329.071
99385.115
99435.514
99480.94
99522.007
99559.274
99593.24
99624.355
99653.015
99679.568
99704.317
99727.525
99749.415
99770.178
99789.969
99808.915
99827.116
99844.649
99861.57
99877.917
99893.708
99908.932
99923.566
99937.63
99951.14
99963.833
99975.283
99986.261
99998.442
100007.6
100005.06
100011.94
100061.77
87793.6
88244.054
88223.231
88709.227
88742.049
89180.531
89327.292
89690.36
89947.26
90270.482
90584.888
90915.599
91255.323
91604.832
91962.959
92328.681
92700.702
93077.551
93457.573
93838.95
94219.73
94597.86
94971.221
95337.675
95695.12
96041.544
96375.078
96694.054
96997.048
97282.914
97550.809
97800.198
98030.852
98242.829
98436.447
98612.252
98770.975
98913.5
99040.819
99153.999
99254.149
99342.39
99419.836
99487.567
99546.623
99597.986
99642.576
99681.247
99714.781
99743.892
99769.223
99791.353
99810.794
99828
99843.369
99857.245
99869.925
99881.663
99892.67
99903.124
99913.171
99922.924
99932.469
99941.87
99951.168
99960.387
99969.537
99978.602
99987.542
99996.322
100004.96
100013.39
100021.24
100028.22
100035.52
100044.26
100048.41
100040.78
100048.97
100103.26
87951.054
88467.428
88444.24
88992.633
89040.111
89526.621
89709.959
90108.594
90412.219
90773.78
91132.764
91506.64
91890.21
92283.17
92683.945
93090.921
93502.21
93915.725
94329.198
94740.213
95146.253
95544.758
95933.186
96309.089
96670.186
97014.438
97340.105
97645.797
97930.505
98193.607
98434.863
98654.391
98852.627
99030.286
99188.304
99327.795
99449.995
99556.219
99647.823
99726.166
99792.585
99848.371
99894.754
99932.89
99963.855
99988.641
100008.15
100023.21
100034.54
100042.81
100048.6
100052.41
100054.7
100055.85
100056.19
100055.99
100055.5
100054.92
100054.38
100054.03
100053.97
100054.25
100054.92
100056.02
100057.54
100059.49
100061.83
100064.53
100067.52
100070.76
100074.25
100077.85
100081.06
100083.91
100087.91
100093.17
100092.16
100080.59
100091.33
100148.16
88176.429
88771.804
88748.738
89367.846
89437.396
89975.91
90207.08
90646.439
91005.82
91414.17
91825.192
92249.728
92683.656
93125.618
93573.366
94024.517
94476.412
94926.195
95370.854
95807.287
96232.392
96643.16
97036.781
97410.737
97762.895
98091.563
98395.536
98674.102
98927.034
99154.549
99357.263
99536.123
99692.344
99827.339
99942.66
100039.94
100120.83
100186.98
100240.01
100281.44
100312.73
100335.23
100350.19
100358.76
100361.97
100360.76
100355.94
100348.26
100338.38
100326.85
100314.16
100300.75
100286.96
100273.11
100259.45
100246.19
100233.49
100221.48
100210.28
100199.95
100190.53
100182.07
100174.55
100167.97
100162.31
100157.53
100153.57
100150.37
100147.84
100145.96
100144.69
100143.76
100142.7
100141.87
100142.95
100144.68
100138.54
100124.58
100139.08
100195.89
88476.756
89166.636
89146.141
89845.656
89948.744
90545.097
90838.675
91327.154
91752.777
92218.171
92689.554
93172.379
93662.729
94158.125
94655.391
95151.142
95641.736
96123.379
96592.237
97044.566
97476.861
97885.989
98269.307
98624.754
98950.895
99246.937
99512.702
99748.575
99955.431
100134.55
100287.51
100416.14
100522.38
100608.27
100675.84
100727.1
100763.97
100788.28
100801.73
100805.9
100802.23
100792.04
100776.49
100756.63
100733.4
100707.6
100679.95
100651.08
100621.51
100591.7
100562.03
100532.83
100504.36
100476.85
100450.46
100425.33
100401.56
100379.22
100358.36
100338.99
100321.13
100304.75
100289.82
100276.3
100264.14
100253.26
100243.6
100235.05
100227.54
100221.03
100215.44
100210.38
100205.49
100201.54
100200.06
100198.22
100187.17
100172.34
100191.74
100245.75
88860.233
89663.001
89649.785
90444.749
90597.816
91261.799
91634.886
92183.315
92685.974
93219.037
93758.771
94306.415
94857.467
95408.049
95953.676
96489.651
97011.165
97513.492
97992.198
98443.333
98863.602
99250.478
99602.266
99918.109
100197.95
100442.43
100652.82
100830.85
100978.62
101098.47
101192.89
101264.41
101315.52
101348.67
101366.15
101370.13
101362.62
101345.42
101320.2
101288.44
101251.46
101210.42
101166.35
101120.14
101072.57
101024.29
100975.88
100927.82
100880.51
100834.28
100789.4
100746.11
100704.56
100664.89
100627.19
100591.54
100557.95
100526.45
100497.04
100469.67
100444.32
100420.94
100399.44
100379.77
100361.85
100345.57
100330.85
100317.58
100305.67
100295.08
100285.64
100276.93
100268.76
100262.25
100258.49
100253.21
100237.86
100223.12
100247.92
100298.05
89344.163
90285.973
90290.862
91200.693
91421.939
92164.077
92634.489
93254.563
93844.365
94455.161
95069.982
95686.45
96298.537
96900.439
97485.989
98049.12
98584.13
99085.973
99550.492
99974.578
100356.24
100694.62
100989.86
101243.05
101455.99
101631.08
101771.11
101879.13
101958.29
102011.77
102042.64
102053.86
102048.18
102028.15
101996.1
101954.12
101904.1
101847.7
101786.37
101721.42
101653.94
101584.9
101515.13
101445.32
101376.07
101307.87
101241.14
101176.2
101113.33
101052.74
100994.6
100939.02
100886.09
100835.85
100788.34
100743.55
100701.45
100662.01
100625.17
100590.87
100559.03
100529.57
100502.38
100477.38
100454.46
100433.51
100414.41
100397.05
100381.36
100367.26
100354.5
100342.66
100331.83
100323.28
100317.46
100308.99
100290.53
100276.74
100306.29
100352.68
89958.825
91077.674
91112.374
92155.977
92464.883
93294.075
93881.255
94587.015
95273.827
95970.816
96663.798
97346.66
98011.057
98649.105
99253.324
99817.163
100335.32
100803.95
101220.74
101584.91
101897.01
102158.76
102372.79
102542.42
102671.4
102763.68
102823.33
102854.3
102860.39
102845.16
102811.91
102763.62
102702.99
102632.39
102553.96
102469.53
102380.71
102288.89
102195.27
102100.86
102006.51
101912.96
101820.81
101730.54
101642.58
101557.24
101474.79
101395.41
101319.25
101246.42
101176.98
101110.95
101048.35
100989.14
100933.29
100880.73
100831.4
100785.21
100742.07
100701.88
100664.53
100629.9
100597.88
100568.36
100541.21
100516.3
100493.5
100472.72
100453.86
100436.82
100421.27
100406.88
100394
100383.91
100376.17
100364.82
100344.67
100333.17
100366.45
100408.35
90738.201
92070.045
92149.358
93347.714
93777.539
94706.056
95431.823
96239.558
97030.06
97814.142
98576.931
99308.721
99999.328
100640.13
101224.26
101746.93
102205.53
102599.48
102930.03
103199.9
103412.93
103573.72
103687.31
103758.94
103793.76
103796.77
103772.62
103725.62
103659.67
103578.24
103484.43
103380.93
103270.09
103153.93
103034.2
102912.36
102789.68
102667.2
102545.8
102426.22
102309.03
102194.73
102083.71
101976.26
101872.61
101772.94
101677.36
101585.95
101498.73
101415.71
101336.87
101262.16
101191.5
101124.83
101062.04
101003.03
100947.68
100895.88
100847.49
100802.4
100760.45
100721.53
100685.5
100652.22
100621.56
100593.38
100567.55
100543.97
100522.54
100503.1
100485.3
100468.94
100454.63
100443.41
100433.96
100420.17
100399.51
100391.59
100427.65
100463.82
91714.105
93311.854
93472.343
94842.487
95438.943
96482.242
97362.967
98281.546
99167.834
100019.28
100819.63
101557.71
102224.42
102813.78
103322.86
103751.62
104102.42
104379.54
104588.58
104735.99
104828.61
104873.31
104876.72
104845.1
104784.17
104699.1
104594.48
104474.33
104342.15
104200.94
104053.29
103901.37
103747.02
103591.79
103436.96
103283.59
103132.55
102984.54
102840.13
102699.77
102563.81
102432.5
102306.04
102184.56
102068.14
101956.8
101850.54
101749.34
101653.12
101561.82
101475.33
101393.55
101316.34
101243.59
101175.14
101110.86
101050.6
100994.21
100941.54
100892.44
100846.76
100804.34
100765.04
100728.71
100695.21
100664.39
100636.13
100610.33
100586.87
100565.54
100546.01
100528.27
100513.04
100501.02
100490.08
100474.52
100454.48
100450.71
100488.08
100517.17
92968.518
94901.871
95188.198
96750.847
97560.884
98725.539
99753.839
100764.99
101706.97
102570.94
103343.29
104016.68
104587.97
105058.1
105431.31
105714.23
105915.14
106043.1
106107.43
106117.21
106081
106006.6
105901.03
105770.45
105620.22
105454.95
105278.54
105094.3
104904.99
104712.92
104519.98
104327.75
104137.51
103950.27
103766.87
103587.97
103414.07
103245.57
103082.75
102925.81
102774.89
102630.06
102491.34
102358.72
102232.15
102111.54
101996.8
101887.82
101784.45
101686.55
101593.96
101506.54
101424.1
101346.48
101273.5
101205
101140.8
101080.73
101024.63
100972.31
100923.63
100878.41
100836.5
100797.75
100762
100729.12
100698.97
100671.45
100646.44
100623.67
100602.9
100584.28
100568.56
100555.94
100543.77
100527.27
100508.88
100508.8
100545.15
100567.31
94630.993
96978.524
97445.143
99197.222
100254.24
101521.76
102641.39
103675.54
104586.7
105369.1
106019.21
106539.87
106938.33
107224.98
107412.04
107512.42
107538.91
107503.58
107417.44
107290.26
107130.59
106945.72
106741.85
106524.15
106296.93
106063.73
105827.46
105590.48
105354.69
105121.63
104892.52
104668.31
104449.74
104237.39
104031.66
103832.87
103641.22
103456.83
103279.75
103109.98
102947.49
102792.2
102643.99
102502.74
102368.3
102240.5
102119.17
102004.12
101895.17
101792.11
101694.75
101602.89
101516.34
101434.88
101358.34
101286.5
101219.18
101156.2
101097.38
101042.52
100991.47
100944.05
100900.09
100859.45
100821.96
100787.48
100755.9
100727.11
100700.94
100677.13
100655.55
100636.46
100620.5
100607.39
100594.28
100577.59
100561.54
100564.46
100598.24
100614.62
96886.994
99698.787
100405.96
102293.78
103556.71
104864.1
105956.03
106884.89
107638.49
108223.39
108651.41
108938.93
109104.27
109166.07
109142.06
109048.4
108899.3
108706.99
108481.77
108232.21
107965.34
107686.87
107401.43
107112.73
106823.7
106536.67
106253.48
105975.55
105703.95
105439.52
105182.86
104934.4
104694.44
104463.16
104240.64
104026.92
103821.94
103625.62
103437.83
103258.43
103087.24
102924.06
102768.69
102620.91
102480.5
102347.23
102220.86
102101.18
101987.93
101880.9
101779.85
101684.56
101594.8
101510.36
101431.01
101356.57
101286.81
101221.54
101160.58
101103.74
101050.83
101001.69
100956.14
100914.04
100875.22
100839.54
100806.91
100777.18
100750.17
100725.67
100703.62
100684.35
100668.29
100654.77
100641.04
100624.84
100611.55
100616.88
100646.91
100656.63
99981.174
103169.93
104177.08
106123.49
107419.26
108571.73
109471.86
110145.22
110610.53
110895.16
111027.45
111035.06
110943.09
110773.38
110544.36
110271.23
109966.33
109639.51
109298.6
108949.72
108597.66
108246.13
107897.95
107555.31
107219.82
106892.69
106574.78
106266.72
105968.91
105681.6
105404.9
105138.84
104883.38
104638.38
104403.7
104179.14
103964.48
103759.48
103563.89
103377.44
103199.86
103030.87
102870.2
102717.57
102572.7
102435.33
102305.17
102181.97
102065.46
101955.38
101851.5
101753.55
101661.31
101574.54
101493.02
101416.52
101344.84
101277.79
101215.15
101156.74
101102.37
101051.88
101005.1
100961.86
100922.02
100885.45
100852.02
100821.61
100794.01
100769.07
100746.8
100727.52
100711.41
100697.56
100683.62
100668.53
100657.95
100664.39
100689.67
100695.06
104167.49
107564.18
108766.23
110440.65
111548.8
112361.03
112877.96
113155.02
113237.21
113167.71
112982.83
112712.56
112380.87
112006.52
111604.02
111184.43
110756.13
110325.4
109896.92
109474.14
109059.57
108655.03
108261.77
107880.66
107512.22
107156.77
106814.45
106485.25
106169.06
105865.71
105574.97
105296.55
105030.17
104775.5
104532.2
104299.93
104078.35
103867.12
103665.87
103474.29
103292.02
103118.74
102954.12
102797.85
102649.61
102509.1
102376.02
102250.09
102131.03
102018.56
101912.42
101812.35
101718.12
101629.47
101546.17
101468
101394.76
101326.22
101262.2
101202.5
101146.93
101095.34
101047.53
101003.37
100962.71
100925.41
100891.36
100860.41
100832.38
100807.16
100784.81
100765.55
100749.36
100735.27
100721.54
100707.99
100699.77
100706.05
100725.98
100728.37
109370.42
112716.13
113820.03
114928.66
115523.54
115792.84
115801.44
115622.76
115310.57
114906.94
114443.03
113941.75
113419.69
112888.76
112357.43
111831.67
111315.63
110812.14
110323.09
109849.67
109392.57
108952.15
108528.46
108121.43
107730.8
107356.26
106997.44
106653.89
106325.17
106010.83
105710.38
105423.36
105149.31
104887.76
104638.28
104400.41
104173.75
103957.86
103752.35
103556.84
103370.93
103194.28
103026.51
102867.29
102716.29
102573.18
102437.65
102309.4
102188.15
102073.61
101965.5
101863.57
101767.56
101677.23
101592.34
101512.67
101437.99
101368.12
101302.84
101241.96
101185.3
101132.68
101083.95
101038.95
100997.53
100959.58
100924.95
100893.51
100865.11
100839.67
100817.25
100797.94
100781.6
100767.41
100754.25
100742.49
100736.05
100740.66
100754.24
100755.24
115534.91
118028.53
118627.11
118896.15
118791.9
118455.42
117965.71
117383.07
116747.68
116086.77
115418.35
114754.25
114102.12
113466.8
112851.24
112257.13
111685.27
111135.93
110608.97
110104.01
109620.51
109157.84
108715.3
108292.18
107887.75
107501.29
107132.09
106779.48
106442.78
106121.35
105814.59
105521.91
105242.75
104976.56
104722.84
104481.08
104250.82
104031.6
103822.99
103624.57
103435.93
103256.7
103086.5
102924.97
102771.78
102626.58
102489.07
102358.92
102235.86
102119.58
102009.82
101906.3
101808.78
101717.01
101630.75
101549.77
101473.86
101402.82
101336.43
101274.52
101216.89
101163.38
101113.83
101068.08
101026
100987.45
100952.3
100920.42
100891.7
100866.06
100843.52
100824.07
100807.52
100793.3
100780.89
100770.78
100765.39
100767.66
100775.69
100776.66
122114.71
122548.9
122325.14
121771.2
121035.65
120209.18
119347.39
118481.87
117630.94
116804.69
116008.45
115244.68
114514.15
113816.62
113151.29
112517.03
111912.54
111336.47
110787.46
110264.19
109765.38
109289.81
108836.34
108403.89
107991.43
107598.03
107222.79
106864.86
106523.47
106197.86
105887.36
105591.3
105309.07
105040.07
104783.75
104539.6
104307.1
104085.79
103875.21
103674.92
103484.52
103303.6
103131.79
102968.72
102814.04
102667.41
102528.52
102397.06
102272.71
102155.19
102044.24
101939.57
101840.94
101748.09
101660.79
101578.82
101501.96
101430
101362.74
101300
101241.58
101187.33
101137.08
101090.69
101048.01
101008.91
100973.26
100940.94
100911.86
100885.94
100863.17
100843.45
100826.6
100812.33
100800.52
100791.6
100786.62
100786.47
100790.23
100791.83
125976.9
125348.87
124428.93
123373.81
122287.05
121212.71
120173.35
119178.23
118230.73
117331.03
116477.79
115668.93
114902.04
114174.68
113484.44
112829.01
112206.26
111614.2
111050.98
110514.92
110004.46
109518.18
109054.76
108612.99
108191.75
107790.01
107406.82
107041.29
106692.59
106359.96
106042.66
105740.03
105451.43
105176.27
104913.97
104664.01
104425.88
104199.09
103983.2
103777.76
103582.36
103396.59
103220.09
103052.47
102893.4
102742.53
102599.53
102464.1
102335.93
102214.75
102100.25
101992.19
101890.3
101794.34
101704.06
101619.24
101539.67
101465.13
101395.42
101330.36
101269.76
101213.45
101161.28
101113.09
101068.73
101028.09
100991.03
100957.44
100927.22
100900.31
100876.64
100856.13
100838.61
100823.92
100812.02
100803.2
100797.94
100796.53
100798.18
100800.23
104045.74
104009.83
104036.22
104063.08
104078.29
104069.93
104037.49
103995.8
103948.08
103889.47
103817.9
103736.23
103647.74
103556.55
103462.97
103367.01
103268.9
103168.97
103067.5
102964.73
102860.92
102756.29
102651.05
102545.4
102439.54
102333.65
102227.92
102122.5
102017.58
101913.32
101809.87
101707.39
101606.03
101505.96
101407.3
101310.22
101214.86
101121.35
101029.86
100940.51
100853.45
100768.83
100686.78
100607.45
100530.98
100457.5
100387.14
100320.03
100256.3
100196.05
100139.4
100086.43
100037.24
99991.875
99950.394
99912.827
99879.187
99849.463
99823.62
99801.594
99783.291
99768.592
99757.361
99749.432
99744.643
99742.736
99743.631
99746.717
99752.632
99759.103
99770.249
99776.679
99796.262
99795.759
99832.693
99808.292
99880.036
99814.106
99933.402
99818.984
103062.1
103055.88
103078.73
103099.4
103102.07
103100.89
103093.62
103079.9
103056.65
103027.83
102992.52
102952.23
102906.38
102855.87
102800.71
102741.43
102678.21
102611.34
102541.09
102467.74
102391.58
102312.88
102231.93
102149.01
102064.39
101978.35
101891.16
101803.06
101714.32
101625.19
101535.89
101446.67
101357.75
101269.35
101181.68
101094.94
101009.35
100925.09
100842.37
100761.38
100682.29
100605.29
100530.56
100458.28
100388.61
100321.72
100257.75
100196.86
100139.18
100084.85
100033.98
99986.68
99943.027
99903.091
99866.923
99834.554
99805.994
99781.224
99760.203
99742.856
99729.081
99718.75
99711.717
99707.809
99706.852
99708.589
99712.907
99719.257
99728.137
99737.558
99751.08
99760.392
99781.457
99783.884
99821.126
99800.447
99871.814
99808.343
99929.953
99812.262
102424.69
102419.44
102418.82
102420.76
102416.12
102411.07
102401.48
102391.67
102376.92
102359.78
102337.52
102312.34
102282.49
102249.23
102211.9
102171
102126.49
102078.57
102027.39
101973.12
101915.94
101856.06
101793.67
101728.97
101662.19
101593.52
101523.21
101451.46
101378.5
101304.56
101229.87
101154.67
101079.17
101003.61
100928.22
100853.22
100778.84
100705.31
100632.84
100561.65
100491.97
100423.99
100357.94
100293.99
100232.36
100173.22
100116.76
100063.14
100012.51
99965.027
99920.817
99879.988
99842.634
99808.827
99778.622
99752.051
99729.119
99709.807
99694.065
99681.81
99672.934
99667.303
99664.762
99665.134
99668.234
99673.809
99681.721
99691.466
99703.444
99715.876
99731.917
99744.066
99766.831
99771.941
99809.887
99792.504
99863.828
99802.594
99926.448
99805.898
101971.98
101959.7
101944.08
101928.43
101913.48
101900.39
101880.51
101862.33
101840.2
101818.82
101793.74
101768.5
101740.21
101710.83
101678.99
101645.36
101609.55
101571.68
101531.68
101489.57
101445.36
101399.08
101350.78
101300.53
101248.41
101194.54
101139.02
101082
101023.62
100964.05
100903.46
100842.05
100780
100717.52
100654.83
100592.12
100529.64
100467.59
100406.21
100345.73
100286.36
100228.34
100171.89
100117.22
100064.54
100014.06
99965.975
99920.461
99877.692
99837.826
99801.002
99767.336
99736.929
99709.858
99686.18
99665.93
99649.111
99635.699
99625.637
99618.838
99615.188
99614.546
99616.755
99621.631
99628.981
99638.557
99650.203
99663.453
99678.633
99694.132
99712.792
99727.753
99752.362
99759.99
99798.933
99784.493
99856.114
99796.887
99922.896
99799.944
101430.62
101414.28
101396.01
101376.77
101356.74
101340.58
101319.88
101302.98
101281.66
101263.27
101241.24
101220.85
101197.75
101174.93
101150.25
101124.76
101097.8
101069.56
101039.83
101008.59
100975.8
100941.42
100905.43
100867.84
100828.67
100787.95
100745.75
100702.14
100657.22
100611.07
100563.84
100515.66
100466.68
100417.06
100366.99
100316.66
100266.26
100216
100166.11
100116.8
100068.29
100020.82
99974.603
99929.864
99886.819
99845.68
99806.65
99769.922
99735.676
99704.074
99675.259
99649.356
99626.467
99606.673
99590.032
99576.579
99566.314
99559.208
99555.198
99554.191
99556.068
99560.686
99567.88
99577.466
99589.245
99602.971
99618.477
99635.333
99653.8
99672.42
99693.772
99711.536
99738.085
99748.155
99788.239
99776.537
99848.632
99791.29
99919.355
99794.377
100796.19
100786.24
100776.75
100766.93
100754.25
100746.78
100732.99
100724.51
100710.16
100699.97
100685.08
100672.92
100657.61
100643.37
100627.21
100610.66
100592.84
100574.1
100554.17
100533.06
100510.72
100487.1
100462.19
100435.98
100408.45
100379.61
100349.49
100318.11
100285.54
100251.83
100217.06
100181.34
100144.77
100107.5
100069.67
100031.43
99992.969
99954.466
99916.118
99878.13
99840.714
99804.085
99768.461
99734.057
99701.09
99669.768
99640.296
99612.867
99587.659
99564.835
99544.539
99526.895
99512.004
99499.948
99490.784
99484.541
99481.217
99480.773
99483.14
99488.22
99495.89
99506.001
99518.387
99532.86
99549.218
99567.22
99586.69
99607.234
99629.054
99650.836
99674.924
99695.478
99724.035
99736.528
99777.801
99768.712
99841.38
99785.855
99915.922
99789.153
100172.11
100170.03
100168.06
100167.72
100162.19
100163.36
100156.58
100156.68
100149.65
100148.38
100141.12
100137.61
100130.31
100124.63
100116.73
100108.67
100099.36
100089.37
100078.43
100066.55
100053.7
100039.85
100024.96
100009.01
99991.993
99973.887
99954.696
99934.435
99913.128
99890.818
99867.56
99843.425
99818.5
99792.89
99766.712
99740.1
99713.203
99686.181
99659.206
99632.462
99606.14
99580.437
99555.557
99531.702
99509.077
99487.882
99468.311
99450.549
99434.768
99421.121
99409.748
99400.765
99394.271
99390.342
99389.027
99390.349
99394.296
99400.821
99409.847
99421.27
99434.961
99450.768
99468.522
99488.032