/*--------------------------------*- C++ -*----------------------------------*\
| =========                 |                                                 |
| \\      /  F ield         | OpenFOAM: The Open Source CFD Toolbox           |
|  \\    /   O peration     | Version:  2512                                  |
|   \\  /    A nd           | Website:  www.openfoam.com                      |
|    \\/     M anipulation  |                                                 |
\*---------------------------------------------------------------------------*/
FoamFile
{
    version     2.0;
    format      ascii;
    arch        "LSB;label=32;scalar=64";
    class       surfaceScalarField;
    location    "0.144";
    object      phi;
}
// * * * * * * * * * * * * * * * * * * * * * * * * * * * * * * * * * * * * * //

dimensions      [1 0 -1 0 0 0 0];

oriented        oriented;

internalField   nonuniform List<scalar> 
31760
(
-0.00063892356
-0.051037522
0.05167641
-0.0016034759
-0.064464834
0.065429435
-0.0025913927
-0.062917428
0.063907202
-0.0036096462
-0.068725054
0.069743253
-0.0046815188
-0.07028714
0.07135901
-0.0057826407
-0.074634625
0.075735856
-0.0069534536
-0.077510808
0.078681738
-0.0081636109
-0.081557204
0.082767594
-0.0094338884
-0.085161902
0.086432445
-0.010763201
-0.089298328
0.090627985
-0.012147844
-0.093429649
0.094814689
-0.013600082
-0.09785126
0.099303954
-0.015114062
-0.10243127
0.10394576
-0.016698385
-0.10724116
0.10882605
-0.018352388
-0.11226545
0.11392007
-0.020080926
-0.11752258
0.11925178
-0.02188659
-0.12301997
0.12482636
-0.023772588
-0.1287693
0.13065607
-0.025742139
-0.13478152
0.1367519
-0.027798633
-0.14106796
0.14312533
-0.029945493
-0.147641
0.14978879
-0.032186474
-0.15451265
0.15675462
-0.034525167
-0.16169651
0.16403625
-0.036965477
-0.16920629
0.17164771
-0.039510375
-0.17705654
0.17960262
-0.042164444
-0.18526138
0.18791669
-0.044931579
-0.19383705
0.19660551
-0.047815211
-0.20280018
0.20568521
-0.05081884
-0.21216768
0.21517279
-0.053946521
-0.22195763
0.22508687
-0.057201573
-0.23218896
0.23544567
-0.060587341
-0.24288149
0.24626901
-0.064106654
-0.25405671
0.25757788
-0.06776258
-0.26573573
0.26939363
-0.071557132
-0.27794265
0.28173929
-0.075491995
-0.29070174
0.29463882
-0.079568524
-0.30403874
0.30811763
-0.083787216
-0.31798138
0.32220258
-0.088147905
-0.33255768
0.33692103
-0.092649287
-0.34779913
0.35230334
-0.097289368
-0.36373756
0.36838065
-0.10206472
-0.38040682
0.38518537
-0.10697072
-0.39784305
0.40275245
-0.11200155
-0.41608422
0.42111866
-0.11714942
-0.43517085
0.44032257
-0.12240517
-0.45514469
0.46040454
-0.12775717
-0.47605085
0.48140721
-0.13319245
-0.49793585
0.50337578
-0.13869544
-0.52084997
0.52635791
-0.14424776
-0.54484517
0.55040276
-0.14982829
-0.56997602
0.57556218
-0.15541348
-0.59630069
0.60189188
-0.16097586
-0.62387966
0.62944844
-0.1664844
-0.65277659
0.65829197
-0.17190455
-0.68305809
0.68848555
-0.17719631
-0.71479479
0.72009437
-0.18231555
-0.74805981
0.75318741
-0.18721279
-0.78292988
0.78783606
-0.1918316
-0.8194857
0.82411408
-0.19610977
-0.85781113
0.86209955
-0.19997716
-0.89799367
0.90187204
-0.20335591
-0.94012437
0.94351488
-0.20615863
-0.98429873
0.98711406
-0.20828794
-1.030616
1.0327588
-0.20963498
-1.0791774
1.0805389
-0.21007876
-1.1300887
1.1305479
-0.20948301
-1.1834568
1.1828774
-0.20770223
-1.2393902
1.2376268
-0.20456957
-1.2980065
1.2948922
-0.19989798
-1.3594251
1.3547728
-0.19348486
-1.4237681
1.4173753
-0.18510998
-1.4911561
1.4828025
-0.17452005
-1.5617139
1.551146
-0.16144864
-1.6355662
1.6225172
-0.14558394
-1.7128634
1.6970218
-0.12666481
-1.7937481
1.7748528
-0.10403422
-1.8783727
1.855767
-0.078146832
-1.9672135
1.9413559
-0.046830944
-2.0589694
2.02767
-2.1576285
2.1227926
-0.00063468326
-0.050402574
-0.0015047623
-0.063594444
-0.0023939447
-0.062027908
-0.00335391
-0.067764683
-0.0043238105
-0.069316788
-0.0053703619
-0.073587635
-0.006432602
-0.076448099
-0.0075745384
-0.08041479
-0.0087421751
-0.083993763
-0.0099844516
-0.088055531
-0.011269151
-0.092144404
-0.012621684
-0.096498157
-0.014031237
-0.10102112
-0.015507446
-0.10576432
-0.017050169
-0.11072207
-0.01866372
-0.11590833
-0.020350222
-0.12133274
-0.022113479
-0.12700527
-0.023956711
-0.13293748
-0.025883513
-0.13914029
-0.027897556
-0.14562605
-0.030002106
-0.15240714
-0.03220128
-0.15949631
-0.034498777
-0.16690772
-0.03689941
-0.17465476
-0.039406002
-0.18275358
-0.042023267
-0.19121851
-0.044754961
-0.20006712
-0.047605394
-0.2093158
-0.050578172
-0.21898332
-0.053677414
-0.2290881
-0.056906499
-0.23965069
-0.060268783
-0.2506926
-0.063767314
-0.26223527
-0.067404576
-0.27430333
-0.071182963
-0.28692117
-0.075103708
-0.30011567
-0.079168384
-0.31391423
-0.083376399
-0.32834703
-0.087727403
-0.34344533
-0.092219846
-0.35924214
-0.096850664
-0.37577283
-0.10161552
-0.39307481
-0.10650935
-0.41118679
-0.11152508
-0.43015128
-0.11665413
-0.45001156
-0.12188623
-0.47081438
-0.12720872
-0.49260871
-0.13260725
-0.51544648
-0.1380652
-0.53938192
-0.14356312
-0.56447244
-0.14907887
-0.59077889
-0.15458716
-0.6183649
-0.1600596
-0.64729724
-0.16546401
-0.67764628
-0.17076402
-0.70948687
-0.17591907
-0.74289627
-0.18088355
-0.7779563
-0.18560609
-0.81475341
-0.19002979
-0.85337698
-0.19409058
-0.89392167
-0.19771709
-0.93648585
-0.20082919
-0.98117374
-0.20333869
-1.0280926
-0.20514591
-1.0773554
-0.20614138
-1.1290774
-0.20619929
-1.1833819
-0.20518427
-1.2403873
-0.20294552
-1.3002262
-0.19931435
-1.3630361
-0.19410642
-1.4289548
-0.18711464
-1.4981256
-0.17811247
-1.5706929
-0.16684779
-1.6468069
-0.15305422
-1.7266325
-0.1364267
-1.8103506
-0.11657893
-1.898193
-0.093430638
-1.9903319
-0.06576634
-2.0866165
-2.1888286
-0.00057126445
-0.04983097
-0.0013832551
-0.062782098
-0.0021885669
-0.061222585
-0.0030952788
-0.066857556
-0.0039855251
-0.068426147
-0.0049638583
-0.072608873
-0.0059413199
-0.075470205
-0.0070041381
-0.079351518
-0.0080845839
-0.082912848
-0.0092388604
-0.086900764
-0.010431983
-0.090950767
-0.011689479
-0.095240121
-0.013001423
-0.099708608
-0.014376595
-0.10438856
-0.015815421
-0.10928261
-0.017321599
-0.11440149
-0.018898445
-0.11975519
-0.020548921
-0.12535405
-0.022277295
-0.13120831
-0.024086388
-0.13733037
-0.02598068
-0.14373087
-0.027963689
-0.1504232
-0.03003929
-0.15741973
-0.032212265
-0.16473369
-0.034485888
-0.17238003
-0.036865382
-0.18037291
-0.039354213
-0.18872843
-0.041957478
-0.19746254
-0.044678766
-0.20659311
-0.047523273
-0.21613733
-0.050494161
-0.22611563
-0.053595819
-0.23654735
-0.056832121
-0.24745451
-0.060205825
-0.25885966
-0.063720597
-0.27078653
-0.067378681
-0.28326093
-0.071182391
-0.29630967
-0.075132315
-0.30996187
-0.079229532
-0.32424721
-0.083473586
-0.3391985
-0.087862735
-0.35485003
-0.092394899
-0.37123751
-0.097066723
-0.38839962
-0.10187276
-0.40637717
-0.106807
-0.4252132
-0.11186147
-0.44495299
-0.11702692
-0.46564456
-0.12229141
-0.48733955
-0.12764236
-0.51009053
-0.1330641
-0.53395484
-0.13853842
-0.5589924
-0.14404591
-0.58526528
-0.14956324
-0.61284102
-0.15506447
-0.64178898
-0.16052044
-0.67218279
-0.1658982
-0.70410103
-0.1711612
-0.73762461
-0.17626728
-0.77284092
-0.18117099
-0.80983972
-0.18581987
-0.84871738
-0.19015651
-0.88957352
-0.19411588
-0.93251412
-0.1976264
-0.97764995
-0.20060717
-1.0250976
-0.20296822
-1.0749791
-0.2046083
-1.1274209
-0.20541908
-1.1825536
-0.20527436
-1.2405133
-0.20403459
-1.3014461
-0.20155177
-1.3654979
-0.19765261
-1.4328317
-0.19215505
-1.5035997
-0.18484749
-1.5779758
-0.17550544
-1.6561233
-0.16387956
-1.738232
-0.14968666
-1.8245164
-0.13263452
-1.9152157
-0.11245513
-2.010481
-0.088455846
-2.1105942
-2.2162912
-0.00051634774
-0.049314382
-0.0012676558
-0.062030506
-0.001999748
-0.060490057
-0.0028487081
-0.066008301
-0.0036740675
-0.067600508
-0.0045853357
-0.071697264
-0.0054864039
-0.074568771
-0.0064756541
-0.078361876
-0.0074764089
-0.081911675
-0.0085499025
-0.085826825
-0.0096591118
-0.089841085
-0.010829752
-0.094068978
-0.012052989
-0.098484838
-0.013336591
-0.10310439
-0.014682017
-0.10793658
-0.016093114
-0.11298975
-0.017573139
-0.11827449
-0.01912546
-0.12380101
-0.020753529
-0.12957949
-0.022461678
-0.13562141
-0.024253066
-0.14193863
-0.026132751
-0.14854261
-0.028104645
-0.15544687
-0.03017275
-0.16266457
-0.032342248
-0.17020946
-0.034617127
-0.17809688
-0.037002472
-0.18634187
-0.03950268
-0.19496104
-0.042123271
-0.20397115
-0.044867674
-0.21339146
-0.047741103
-0.22324065
-0.050748005
-0.23353879
-0.053892163
-0.2443086
-0.057177547
-0.2555724
-0.060607653
-0.26735443
-0.064185018
-0.27968144
-0.067911931
-0.29258048
-0.071790373
-0.30608101
-0.075820746
-0.32021426
-0.080003133
-0.33501335
-0.08433696
-0.35051326
-0.08881956
-0.36675176
-0.093448129
-0.38376769
-0.098218287
-0.40160342
-0.10312408
-0.42030357
-0.10815899
-0.43991399
-0.11331327
-0.46048589
-0.11857797
-0.48207015
-0.12394026
-0.50472321
-0.12938647
-0.52850324
-0.13490091
-0.55347217
-0.14046494
-0.57969505
-0.1460583
-0.60724101
-0.15165812
-0.63618202
-0.1572373
-0.66659594
-0.16276748
-0.6985626
-0.16821519
-0.73216804
-0.17354359
-0.767503
-0.17871151
-0.80466156
-0.18367254
-0.84374534
-0.18837501
-0.88485921
-0.19276106
-0.92811533
-0.19676652
-0.9736308
-0.20031906
-1.0215303
-0.20333822
-1.0719441
-0.20573602
-1.1250061
-0.20740698
-1.1808644
-0.20824514
-1.2396556
-0.20812211
-1.3015483
-0.20690578
-1.3666921
-0.20444335
-1.4352707
-0.20055866
-1.5074596
-0.19507425
-1.5834341
-0.18777793
-1.6633923
-0.17844867
-1.747533
-0.16683413
-1.8361016
-0.15266853
-1.9293498
-0.13566044
-2.0274581
-0.11534211
-2.1308883
-2.2398489
-0.00046253668
-0.048851599
-0.0011672635
-0.0613255
-0.0018223447
-0.059834703
-0.0026114582
-0.065218869
-0.0033606046
-0.066851002
-0.0042148794
-0.070842635
-0.0050492579
-0.073734019
-0.0059727865
-0.077437953
-0.0069026195
-0.080981426
-0.0079031357
-0.084825869
-0.0089381353
-0.08880562
-0.010032184
-0.092974438
-0.011178547
-0.097337955
-0.012383773
-0.10189861
-0.013650028
-0.10666975
-0.014980426
-0.11165874
-0.016378673
-0.11687559
-0.017848522
-0.12233047
-0.019393652
-0.12803362
-0.021018092
-0.1339962
-0.022726563
-0.14022934
-0.024522435
-0.14674586
-0.026411252
-0.15355713
-0.028397646
-0.16067719
-0.030486191
-0.16811986
-0.032682234
-0.17589973
-0.03499106
-0.18403186
-0.037417697
-0.19253314
-0.039967172
-0.20142033
-0.042644798
-0.21071241
-0.045455569
-0.22042835
-0.048404083
-0.23058866
-0.051494826
-0.24121612
-0.054732279
-0.25233311
-0.058119725
-0.26396502
-0.061660366
-0.27613869
-0.065356806
-0.2888818
-0.069211038
-0.30222438
-0.073223885
-0.31619885
-0.077395789
-0.33083871
-0.081725735
-0.34618039
-0.086212557
-0.36226181
-0.090852956
-0.37912394
-0.095643216
-0.39680957
-0.10057882
-0.41536411
-0.10565273
-0.43483596
-0.11085765
-0.45527655
-0.11618435
-0.47673871
-0.12162204
-0.49928043
-0.12715907
-0.52296075
-0.13278088
-0.5478445
-0.13847193
-0.5739977
-0.14421409
-0.60149208
-0.14998694
-0.63040189
-0.15576804
-0.660807
-0.16153153
-0.69279068
-0.16724811
-0.72644238
-0.17288635
-0.76185498
-0.17840953
-0.79912785
-0.18377761
-0.83836592
-0.18894475
-0.87967986
-0.19386039
-0.92318652
-0.19846757
-0.96900946
-0.20270307
-1.0172796
-0.206496
-1.0681347
-0.20976571
-1.1217187
-0.21242685
-1.1781842
-0.21437355
-1.2376885
-0.21550535
-1.3003947
-0.21568925
-1.366485
-0.21479765
-1.4361376
-0.21267699
-1.5095541
-0.20916009
-1.5869233
-0.20406307
-1.6684601
-0.19718277
-1.7543828
-0.18829439
-1.8449582
-0.1771649
-1.9404451
-0.16350096
-2.0410894
-0.14697077
-2.1473911
-2.2592998
-0.00041281193
-0.048438551
-0.0010764596
-0.060661587
-0.001669536
-0.059241358
-0.0024033107
-0.064484798
-0.0030753542
-0.066178645
-0.0038785032
-0.070039153
-0.0046453461
-0.072966825
-0.0055087028
-0.076574223
-0.0063744642
-0.08011527
-0.0073138112
-0.083886104
-0.0082890095
-0.087829979
-0.0093209146
-0.091942065
-0.010405133
-0.096253239
-0.011546636
-0.10075658
-0.012748106
-0.10546772
-0.014013429
-0.11039283
-0.015346098
-0.11554229
-0.016749997
-0.12092591
-0.018229638
-0.12655327
-0.019789035
-0.13243605
-0.021433312
-0.13858426
-0.023167317
-0.14501101
-0.024996239
-0.1517273
-0.02692524
-0.15874723
-0.028959998
-0.16608408
-0.031106405
-0.17375223
-0.033369284
-0.18176782
-0.035755041
-0.19014615
-0.038269087
-0.19890497
-0.040916918
-0.20806318
-0.043704248
-0.21763953
-0.046635777
-0.22765553
-0.049717021
-0.23813317
-0.052951395
-0.24909691
-0.056343513
-0.26057095
-0.059896803
-0.27258332
-0.063613547
-0.28516283
-0.067495794
-0.29833975
-0.071545139
-0.31214696
-0.075761673
-0.32661945
-0.080145298
-0.34179384
-0.084693998
-0.35770998
-0.089406015
-0.37440857
-0.094278054
-0.39193393
-0.099304992
-0.41033331
-0.10448168
-0.42965512
-0.10980229
-0.44995149
-0.11525789
-0.47127832
-0.12084047
-0.49369271
-0.12653854
-0.51725714
-0.13234143
-0.54203566
-0.1382351
-0.56809764
-0.14420444
-0.59551584
-0.15023233
-0.62436657
-0.15629938
-0.65473194
-0.1623838
-0.68669761
-0.16846186
-0.720355
-0.17450546
-0.75580132
-0.18048413
-0.79313833
-0.18636281
-0.83247552
-0.19210334
-0.8739267
-0.19766178
-0.91761446
-0.20298942
-0.96366713
-0.20803127
-1.0122218
-0.21272579
-1.0634231
-0.21700376
-1.1174222
-0.22078781
-1.1743803
-0.22399371
-1.2344612
-0.22651948
-1.297846
-0.22826459
-1.3647154
-0.22910519
-1.4352709
-0.22891027
-1.5097212
-0.22753232
-1.5882717
-0.2248061
-1.6711551
-0.22055181
-1.7586044
-0.21457535
-1.8509001
-0.20666037
-1.9483229
-0.19655294
-2.0511616
-0.18397377
-2.1599397
-2.274449
-0.00037025052
-0.048068077
-0.0010030991
-0.060028485
-0.0015415339
-0.058702656
-0.002229389
-0.063796659
-0.0028442315
-0.06556351
-0.0035965519
-0.069286514
-0.0043104649
-0.072252576
-0.0051127552
-0.075771576
-0.0059383879
-0.079289259
-0.0068308944
-0.082993196
-0.0077591325
-0.086901315
-0.0087402818
-0.090960465
-0.0097733547
-0.095219687
-0.010862673
-0.099666754
-0.012012226
-0.10431763
-0.013225528
-0.10917895
-0.014507445
-0.11425977
-0.015862085
-0.11957062
-0.017294265
-0.12512041
-0.018809408
-0.13092018
-0.020412151
-0.13698074
-0.022108747
-0.14331359
-0.023904469
-0.1499307
-0.025805083
-0.15684568
-0.027817033
-0.16407113
-0.029946064
-0.17162214
-0.032199181
-0.17951357
-0.034582074
-0.18776205
-0.037100611
-0.19638514
-0.039761546
-0.20540086
-0.042570024
-0.21482958
-0.045531775
-0.22469221
-0.048651605
-0.23501166
-0.051934751
-0.24581197
-0.055384367
-0.25711941
-0.059004203
-0.26896143
-0.062797428
-0.2813674
-0.066765753
-0.29436906
-0.070910302
-0.30799987
-0.075231694
-0.32229534
-0.079729834
-0.33729278
-0.084403391
-0.35303329
-0.089250711
-0.36955788
-0.094268527
-0.3869125
-0.099453806
-0.40514414
-0.10480188
-0.42430286
-0.11030718
-0.4444417
-0.11596409
-0.46561657
-0.12176452
-0.48788706
-0.12770098
-0.51131507
-0.13376335
-0.53596724
-0.1399412
-0.56191326
-0.14622279
-0.58922721
-0.15259393
-0.61798782
-0.15903946
-0.6482782
-0.16554151
-0.68018669
-0.17208078
-0.71380614
-0.17863482
-0.74923691
-0.18517829
-0.78658365
-0.19168319
-0.82595852
-0.19811687
-0.86747992
-0.20444357
-0.91127363
-0.21062216
-0.95747327
-0.21660689
-1.0062206
-0.22234609
-1.057666
-0.22778082
-1.1119682
-0.23284553
-1.1692947
-0.23746736
-1.2298169
-0.24156097
-1.2937283
-0.24503438
-1.3612162
-0.24778888
-1.4324887
-0.24970655
-1.5077739
-0.25065711
-1.5872896
-0.25050332
-1.6712754
-0.24908186
-1.7599906
-0.24622318
-1.8537212
-0.24174484
-1.9527609
-0.235416
-2.0574525
-0.22700325
-2.1683179
-2.285059
-0.00032667601
-0.047741186
-0.00093356939
-0.05942135
-0.0014232138
-0.058212761
-0.0020659437
-0.063153659
-0.0026390141
-0.064990151
-0.0033657476
-0.068559476
-0.0040473067
-0.071570694
-0.0048342852
-0.074984256
-0.0056167001
-0.07850648
-0.0064614985
-0.082148013
-0.0073460978
-0.086016307
-0.0082831171
-0.090023012
-0.0092744991
-0.094227844
-0.010323822
-0.098616943
-0.011435457
-0.10320547
-0.012613977
-0.10799988
-0.013863333
-0.11300982
-0.015189513
-0.11824382
-0.016597364
-0.12371189
-0.018092595
-0.12942424
-0.019681096
-0.13539149
-0.021368937
-0.14162494
-0.023162511
-0.14813627
-0.025069166
-0.15493811
-0.027094494
-0.16204483
-0.029246119
-0.16946948
-0.031530327
-0.17722825
-0.033954106
-0.18533708
-0.036524118
-0.19381386
-0.039246574
-0.20267705
-0.042127347
-0.21194735
-0.045172304
-0.2216457
-0.048386682
-0.23179562
-0.051774614
-0.24242225
-0.055340396
-0.25355172
-0.059087561
-0.26521221
-0.063018283
-0.27743448
-0.067134791
-0.29025019
-0.071438362
-0.30369377
-0.075929485
-0.31780149
-0.080607901
-0.33261144
-0.085473491
-0.34816455
-0.090524052
-0.36450394
-0.095757901
-0.38167501
-0.10117243
-0.3997257
-0.1067642
-0.41870687
-0.11252952
-0.43867183
-0.11846398
-0.4596772
-0.12456233
-0.48178342
-0.13081869
-0.505053
-0.13722662
-0.52955314
-0.14377796
-0.55535525
-0.15046427
-0.58253369
-0.15727541
-0.61116889
-0.16420026
-0.64134492
-0.17122599
-0.67315182
-0.17833737
-0.70668487
-0.18551768
-0.74204589
-0.19274775
-0.77934198
-0.20000548
-0.81868824
-0.20726579
-0.86020604
-0.21450012
-0.90402461
-0.22167572
-0.95028176
-0.22875611
-0.999123
-0.2356988
-1.0507047
-0.24245685
-1.1051899
-0.24897581
-1.1627539
-0.25519326
-1.2235758
-0.26104194
-1.2878541
-0.26644789
-1.3557829
-0.27131608
-1.4275912
-0.27555832
-1.5035002
-0.27905917
-1.5837549
-0.28170002
-1.6685984
-0.28334577
-1.7583067
-0.28385308
-1.853173
-0.28306015
-1.9535098
-0.28076731
-2.0597039
-0.27678632
-2.17226
-2.2908564
-0.00028444251
-0.04745654
-0.00087190998
-0.058833653
-0.0013219346
-0.057762496
-0.0019445658
-0.062530769
-0.0024958079
-0.064438636
-0.0031995393
-0.067855454
-0.0038460361
-0.070923888
-0.0046085779
-0.074221385
-0.0053597573
-0.077754952
-0.0061722507
-0.08133515
-0.0070298027
-0.085158361
-0.0079401372
-0.08911226
-0.0089077123
-0.093259825
-0.0099360428
-0.097588141
-0.011030173
-0.10211084
-0.012194937
-0.10683458
-0.013436013
-0.11176818
-0.01475884
-0.11692039
-0.016169469
-0.12230062
-0.017674738
-0.12791828
-0.019280768
-0.13378472
-0.020995195
-0.13990973
-0.022824518
-0.14630611
-0.024776275
-0.15298547
-0.026858202
-0.15996195
-0.029077249
-0.16724941
-0.031441116
-0.17486329
-0.033956832
-0.1828202
-0.03663099
-0.19113845
-0.039470533
-0.19983617
-0.042481642
-0.20893481
-0.045669461
-0.21845634
-0.049038932
-0.2284245
-0.052594884
-0.23886453
-0.056340982
-0.24980372
-0.060279939
-0.26127121
-0.064414567
-0.27329766
-0.068746629
-0.28591577
-0.073277042
-0.29916082
-0.078006746
-0.31306906
-0.082935592
-0.32767966
-0.088063104
-0.34303387
-0.093388864
-0.35917477
-0.09891208
-0.37614812
-0.10463095
-0.39400286
-0.11054394
-0.4127896
-0.1166489
-0.43256225
-0.12294357
-0.45337754
-0.1294254
-0.47529621
-0.13609082
-0.49838175
-0.14293652
-0.52270114
-0.1499582
-0.54832675
-0.15715062
-0.57533389
-0.16450827
-0.60380324
-0.17202397
-0.63382054
-0.17968977
-0.6654766
-0.18749555
-0.69886888
-0.19543085
-0.73409951
-0.20348203
-0.77127878
-0.21163367
-0.81052357
-0.21986824
-0.85195734
-0.22816496
-0.89571259
-0.23649994
-0.94193019
-0.24484503
-0.99075992
-0.25316934
-1.0423608
-0.26143577
-1.0969023
-0.26960342
-1.1545633
-0.27762176
-1.2155326
-0.28543821
-1.2800108
-0.29298733
-1.3482048
-0.30020387
-1.4203434
-0.30700797
-1.4966624
-0.31331099
-1.5774156
-0.31900828
-1.6628622
-0.32399047
-1.753283
-0.32813984
-1.848979
-0.33131855
-1.9502831
-0.33336895
-2.0576081
-0.33411827
-2.1714663
-2.2915243
-0.00024606944
-0.047210276
-0.00082235662
-0.058257147
-0.0012422596
-0.057342363
-0.0018898295
-0.061882953
-0.0024221157
-0.063906088
-0.0031007607
-0.067176531
-0.0037229095
-0.070301444
-0.0044454359
-0.073498544
-0.0051848374
-0.077015216
-0.0059812111
-0.080538421
-0.0068284734
-0.084310721
-0.0077302414
-0.08821009
-0.0086933752
-0.092296263
-0.0097218484
-0.096559212
-0.010821406
-0.1010108
-0.011997824
-0.10565765
-0.013257373
-0.11050808
-0.014606798
-0.11557037
-0.016052974
-0.12085381
-0.017602724
-0.12636786
-0.019264808
-0.13212192
-0.021045831
-0.13812794
-0.022954832
-0.14439629
-0.024999272
-0.15094015
-0.027187161
-0.15777312
-0.029526772
-0.16490879
-0.032025676
-0.17236331
-0.034690997
-0.18015373
-0.037530268
-0.18829795
-0.040549566
-0.19681555
-0.043754548
-0.20572841
-0.047150889
-0.21505847
-0.050742993
-0.22483076
-0.054534987
-0.23507077
-0.058530037
-0.24580678
-0.062730801
-0.25706841
-0.067139327
-0.26888694
-0.071757106
-0.28129563
-0.076585661
-0.29432972
-0.08162544
-0.30802654
-0.086877128
-0.32242501
-0.092341279
-0.33756653
-0.098018163
-0.35349444
-0.1039076
-0.37025497
-0.11001026
-0.38789619
-0.11632651
-0.40646902
-0.12285619
-0.42602788
-0.12959963
-0.44662903
-0.13655696
-0.46833339
-0.14372832
-0.49120444
-0.15111294
-0.51531008
-0.15871101
-0.54072169
-0.16652106
-0.56751625
-0.17454162
-0.59577444
-0.1827707
-0.62558252
-0.19120507
-0.65703252
-0.19984093
-0.69022245
-0.20867273
-0.72525623
-0.21769404
-0.762245
-0.2268966
-0.80130747
-0.23626954
-0.84256969
-0.24580078
-0.88616539
-0.25547508
-0.93223856
-0.26527477
-0.98094141
-0.27517816
-1.032437
-0.28516017
-1.086898
-0.29519082
-1.1445084
-0.3052363
-1.2054609
-0.3152542
-1.2699644
-0.32519942
-1.3382288
-0.33502215
-1.4104875
-0.34465563
-1.486993
-0.35403574
-1.5679965
-0.36308154
-1.6537744
-0.37170675
-1.7446127
-0.37981161
-1.8408253
-0.38729552
-1.9427468
-0.39402992
-2.0508235
-0.39987968
-2.1655655
-2.2867088
-0.0002135094
-0.046996581
-0.00079150932
-0.057678939
-0.0011895365
-0.056944117
-0.0018479068
-0.061224347
-0.0023518555
-0.063401889
-0.003024244
-0.066503876
-0.0036450214
-0.069680382
-0.0043622075
-0.072781056
-0.0051033602
-0.076273742
-0.0058994265
-0.079742013
-0.0067538646
-0.083455918
-0.0076673356
-0.087296232
-0.0086481473
-0.091315038
-0.0097011406
-0.095505778
-0.010833009
-0.099878457
-0.012050526
-0.10443963
-0.013360953
-0.10919711
-0.014771742
-0.11415901
-0.016291471
-0.11933347
-0.017928229
-0.12473045
-0.01969047
-0.13035898
-0.021587305
-0.13623036
-0.023627076
-0.14235572
-0.0258187
-0.14874767
-0.028171093
-0.15541981
-0.030691844
-0.16238705
-0.033388963
-0.16966513
-0.036269884
-0.17727167
-0.039341463
-0.18522515
-0.042608986
-0.19354671
-0.046078877
-0.2022571
-0.049754918
-0.21138091
-0.053641758
-0.22094228
-0.057741986
-0.23096879
-0.062058187
-0.24148868
-0.066593033
-0.25253153
-0.07134816
-0.26412961
-0.076324811
-0.27631661
-0.081524439
-0.28912753
-0.086948583
-0.30259964
-0.092598512
-0.3167721
-0.098475802
-0.33168603
-0.10458193
-0.34738484
-0.11091932
-0.36391381
-0.11749019
-0.38132124
-0.1242968
-0.399658
-0.1313427
-0.41897721
-0.13863031
-0.43933624
-0.14616358
-0.46079451
-0.15394579
-0.48341614
-0.16198074
-0.50726851
-0.17027133
-0.53242392
-0.17882136
-0.55895841
-0.18763416
-0.58695316
-0.19671226
-0.61649518
-0.20605813
-0.6476766
-0.21567385
-0.68059579
-0.22556017
-0.715358
-0.23571717
-0.75207503
-0.24614353
-0.790867
-0.25683763
-0.83186026
-0.26779465
-0.87519169
-0.27900896
-0.92100611
-0.29047262
-0.96945801
-0.30217507
-1.020713
-0.31410298
-1.0749467
-0.3262397
-1.1323462
-0.33856244
-1.1931104
-0.35104854
-1.2574482
-0.3636663
-1.3255783
-0.37637655
-1.3977418
-0.38914683
-1.4741842
-0.40192119
-1.5551802
-0.41464272
-1.6410075
-0.4272456
-1.7319608
-0.43966859
-1.828349
-0.45182548
-1.930533
-0.46363225
-2.0389617
-0.47498473
-2.154155
-2.2759916
-0.00019262506
-0.046803779
-0.0007901013
-0.057081264
-0.0011844725
-0.056549536
-0.0018366902
-0.060571904
-0.0023341806
-0.062904159
-0.0030099389
-0.065827862
-0.003644816
-0.069045233
-0.0043660798
-0.072059502
-0.0051285824
-0.075510929
-0.0059451094
-0.078925157
-0.0068280841
-0.082572592
-0.0077771037
-0.086346838
-0.0088017
-0.090290041
-0.0099080101
-0.094399042
-0.011103844
-0.098682167
-0.012397216
-0.10314577
-0.013796725
-0.10779708
-0.015311384
-0.11264379
-0.016950023
-0.11769424
-0.018722803
-0.12295703
-0.020638752
-0.12844235
-0.022707767
-0.13416061
-0.024938902
-0.1401238
-0.027341481
-0.14634424
-0.029924227
-0.15283616
-0.032695377
-0.15961493
-0.035662066
-0.1666974
-0.038831488
-0.17410112
-0.042209086
-0.18184634
-0.045800768
-0.18995372
-0.049610173
-0.1984463
-0.05364121
-0.20734836
-0.057896902
-0.21668496
-0.0623795
-0.22648443
-0.067091129
-0.23677516
-0.072033674
-0.24758694
-0.077208489
-0.25895259
-0.082617723
-0.27090499
-0.088263033
-0.28347965
-0.094146905
-0.29671298
-0.10027203
-0.31064397
-0.1066416
-0.32531319
-0.11325966
-0.34076325
-0.12013035
-0.3570393
-0.12725846
-0.374189
-0.13464986
-0.3922621
-0.14231034
-0.41131185
-0.15024653
-0.43139477
-0.15846512
-0.45257017
-0.16697361
-0.47490141
-0.17577953
-0.49845581
-0.18489133
-0.52330473
-0.19431675
-0.54952496
-0.20406412
-0.57719702
-0.21414124
-0.60640851
-0.22455694
-0.63725049
-0.23531846
-0.66982292
-0.24643356
-0.70423053
-0.2579095
-0.74058559
-0.26975305
-0.77900875
-0.28196968
-0.8196276
-0.29456444
-0.86257948
-0.30754101
-0.90801053
-0.32090165
-0.95607664
-0.33464737
-1.0069447
-0.34877679
-1.0607926
-0.36328595
-1.1178101
-0.37816759
-1.1781993
-0.39341484
-1.2421689
-0.40900779
-1.3099505
-0.42493432
-1.3817773
-0.44116776
-1.4579094
-0.4576842
-1.5386186
-0.47445116
-1.6241913
-0.49142308
-1.7149355
-0.50855765
-1.8111563
-0.52580386
-1.913225
-0.54311677
-2.0215877
-0.56042121
-2.1367842
-2.2588944
-0.00017314646
-0.046630463
-0.00079853119
-0.05645569
-0.0011970906
-0.056150777
-0.0018615096
-0.05990727
-0.0023754977
-0.062389942
-0.0030655272
-0.065137587
-0.0037283143
-0.068382184
-0.0044724443
-0.071315094
-0.0052736509
-0.074709425
-0.0061325321
-0.078065959
-0.0070678035
-0.081636981
-0.0080796667
-0.085334613
-0.0091785018
-0.089190818
-0.010372149
-0.093204981
-0.011669813
-0.09738406
-0.01308101
-0.1017341
-0.014615702
-0.10626188
-0.016284232
-0.11097472
-0.018097129
-0.11588075
-0.020064603
-0.12098893
-0.022197354
-0.12630892
-0.024505281
-0.13185196
-0.026997862
-0.13763044
-0.029684533
-0.14365674
-0.032573269
-0.14994652
-0.035671474
-0.15651576
-0.038986378
-0.16338145
-0.042522764
-0.17056361
-0.046285679
-0.17808222
-0.050278779
-0.18595932
-0.054505151
-0.19421852
-0.058967464
-0.20288454
-0.06366669
-0.2119841
-0.068605685
-0.22154368
-0.073785524
-0.23159342
-0.079207843
-0.24216256
-0.084875265
-0.25328295
-0.090789852
-0.264988
-0.096955628
-0.27731127
-0.10337625
-0.29028954
-0.1100563
-0.30396088
-0.11700129
-0.31836491
-0.1242179
-0.33354305
-0.13171308
-0.34954023
-0.13949491
-0.36640295
-0.1475724
-0.38418003
-0.15595493
-0.40292435
-0.1646527
-0.42269158
-0.17367696
-0.44354003
-0.18303896
-0.465533
-0.19275114
-0.48873664
-0.20282542
-0.51322284
-0.21327576
-0.53906632
-0.22411505
-0.56634867
-0.23535771
-0.59515597
-0.24701722
-0.62558018
-0.25910857
-0.65771978
-0.27164595
-0.69168025
-0.28464381
-0.72757367
-0.29811738
-0.7655198
-0.3120804
-0.80564782
-0.32654725
-0.84809432
-0.34153186
-0.89300594
-0.35704737
-0.94053932
-0.3731058
-0.9908624
-0.38971896
-1.0441533
-0.40689714
-1.1006033
-0.42464946
-1.1604158
-0.44297895
-1.2238053
-0.46189037
-1.2910019
-0.48138367
-1.3622433
-0.50145907
-1.4377895
-0.52211051
-1.5179185
-0.5433234
-1.6029251
-0.56508906
-1.6931116
-0.58738139
-1.7888006
-0.61018894
-1.8903503
-0.63348759
-1.9982214
-0.65724728
-2.1129489
-2.2348728
-0.0001593006
-0.046471002
-0.00082713642
-0.055787674
-0.0012357721
-0.05574195
-0.0019284408
-0.059214395
-0.0024736713
-0.061844491
-0.0031914519
-0.064419572
-0.0039043178
-0.067669067
-0.0046917218
-0.070527422
-0.0055549308
-0.073845929
-0.0064835581
-0.077137025
-0.0075006842
-0.080619526
-0.0086086503
-0.084226296
-0.0098189976
-0.087980094
-0.011141705
-0.091881871
-0.012587569
-0.095937763
-0.01416792
-0.10015328
-0.015894177
-0.10453513
-0.017777894
-0.10909047
-0.01983054
-0.11382753
-0.022063282
-0.11875557
-0.024486584
-0.12388496
-0.027110697
-0.12922713
-0.029945057
-0.13479531
-0.032997343
-0.14060362
-0.036275112
-0.14666786
-0.039784239
-0.15300567
-0.043529378
-0.15963528
-0.047514549
-0.16657733
-0.051742503
-0.17385306
-0.056215157
-0.18148537
-0.060933833
-0.18949844
-0.065900199
-0.19791666
-0.071115323
-0.20676734
-0.07658063
-0.2160766
-0.082298333
-0.2258738
-0.088270893
-0.23618793
-0.094501629
-0.24704997
-0.10099554
-0.25849167
-0.10775695
-0.27054723
-0.11479294
-0.2832507
-0.12211042
-0.2966403
-0.12971879
-0.31075318
-0.13762655
-0.32563165
-0.1458446
-0.34131822
-0.15438502
-0.35785823
-0.16325955
-0.37530082
-0.17248198
-0.39369682
-0.18206685
-0.41310115
-0.19202898
-0.43357185
-0.20238479
-0.45517059
-0.21315065
-0.47796358
-0.22434496
-0.50202068
-0.23598526
-0.52741744
-0.2480908
-0.55423375
-0.26068181
-0.58255471
-0.27377856
-0.61247222
-0.28740194
-0.64408412
-0.30157451
-0.67749425
-0.31631847
-0.71281501
-0.33165635
-0.75016585
-0.34761191
-0.78967468
-0.36420935
-0.83147766
-0.38147277
-0.8757215
-0.39942615
-0.92256293
-0.41809514
-0.9721682
-0.43750415
-1.0247167
-0.45767752
-1.0803997
-0.47863909
-1.139421
-0.50041025
-1.2019978
-0.52301488
-1.2683574
-0.54647116
-1.3387434
-0.57079645
-1.4134163
-0.59600951
-1.4926528
-0.62212806
-1.5767488
-0.64915728
-1.6660188
-0.67710661
-1.7607821
-0.70598555
-1.8613988
-0.73581125
-1.9683208
-0.76657867
-2.0820954
-2.2033042
-0.00015165131
-0.046319197
-0.00088122987
-0.055057923
-0.0013023912
-0.055320606
-0.00203999
-0.058476599
-0.0026340734
-0.061250196
-0.0033980327
-0.063655387
-0.0041837117
-0.066883146
-0.0050394958
-0.069671379
-0.0059904606
-0.072894686
-0.0070203943
-0.076106795
-0.0081548083
-0.079484794
-0.0093996046
-0.082981159
-0.010767888
-0.086611444
-0.012271748
-0.090377618
-0.013923874
-0.094285214
-0.015736981
-0.098339724
-0.017723803
-0.10254782
-0.01989668
-0.10691707
-0.022267589
-0.11145606
-0.024847689
-0.11617486
-0.027647359
-0.12108463
-0.030675475
-0.12619831
-0.033939703
-0.13153032
-0.037446726
-0.13709578
-0.041200984
-0.14291272
-0.045206441
-0.14899926
-0.049464827
-0.15537586
-0.0539778
-0.16206324
-0.058746262
-0.16908339
-0.063770435
-0.17645989
-0.069051146
-0.18421633
-0.07458888
-0.19237741
-0.080385505
-0.20096908
-0.086442998
-0.21001733
-0.092765063
-0.21954981
-0.099355551
-0.22959536
-0.10622066
-0.2401826