/*--------------------------------*- C++ -*----------------------------------*\
| =========                 |                                                 |
| \\      /  F ield         | OpenFOAM: The Open Source CFD Toolbox           |
|  \\    /   O peration     | Version:  2512                                  |
|   \\  /    A nd           | Website:  www.openfoam.com                      |
|    \\/     M anipulation  |                                                 |
\*---------------------------------------------------------------------------*/
FoamFile
{
    version     2.0;
    format      ascii;
    arch        "LSB;label=32;scalar=64";
    class       volScalarField;
    location    "0.144";
    object      rho;
}
// * * * * * * * * * * * * * * * * * * * * * * * * * * * * * * * * * * * * * //

dimensions      [1 -3 0 0 0 0 0];

internalField   nonuniform List<scalar> 
16000
(
1.0643414
1.0950052
1.0785121
1.0887399
1.082771
1.0871411
1.0852403
1.0873981
1.0871469
1.0884409
1.0889273
1.0899344
1.0907408
1.0917098
1.0926703
1.093695
1.0947554
1.0958612
1.0970093
1.0982003
1.0994338
1.1007095
1.1020269
1.1033853
1.1047838
1.1062213
1.1076966
1.109208
1.1107537
1.1123315
1.1139391
1.1155737
1.1172323
1.1189117
1.1206084
1.1223186
1.1240383
1.1257633
1.1274893
1.1292119
1.1309267
1.1326291
1.1343147
1.1359792
1.1376183
1.1392282
1.1408049
1.1423451
1.1438456
1.1453034
1.1467161
1.1480814
1.1493975
1.1506629
1.1518764
1.1530371
1.1541444
1.155198
1.1561979
1.1571441
1.1580369
1.1588766
1.1596636
1.1603984
1.1610813
1.1617126
1.162293
1.1628232
1.163304
1.1637358
1.1641184
1.1644512
1.1647349
1.1649717
1.1651636
1.1653169
1.1654217
1.1653712
1.1657988
1.1647727
1.0611172
1.0923334
1.0752117
1.0860661
1.0797725
1.0845146
1.082426
1.084818
1.0845285
1.0859394
1.0864792
1.0875609
1.0884483
1.0894924
1.0905386
1.0916474
1.0927972
1.0939945
1.0952372
1.0965254
1.0978586
1.0992361
1.1006573
1.102121
1.1036261
1.105171
1.106754
1.1083731
1.1100258
1.1117097
1.1134216
1.1151584
1.1169165
1.118692
1.1204808
1.1222786
1.1240809
1.1258829
1.12768
1.1294674
1.1312402
1.1329937
1.1347234
1.136425
1.1380943
1.1397274
1.1413209
1.1428717
1.1443769
1.1458341
1.1472413
1.148597
1.1498998
1.1511487
1.1523433
1.153483
1.154568
1.1555984
1.1565744
1.1574968
1.1583661
1.1591828
1.1599477
1.1606615
1.1613245
1.1619373
1.1625005
1.1630148
1.1634809
1.1638992
1.1642694
1.1645907
1.1648632
1.1650888
1.1652709
1.1654129
1.1654903
1.1655097
1.1657632
1.1648849
1.0583121
1.0898793
1.0724829
1.0835617
1.0771774
1.0820726
1.0800068
1.0824802
1.0822642
1.0837406
1.0843691
1.0855231
1.0865024
1.0876304
1.0887704
1.089973
1.0912208
1.0925184
1.093864
1.0952574
1.0966976
1.0981839
1.0997151
1.1012898
1.1029064
1.104563
1.1062573
1.1079868
1.1097486
1.1115395
1.1133558
1.1151937
1.1170489
1.118917
1.1207932
1.1226725
1.1245499
1.1264203
1.1282784
1.1301191
1.1319374
1.1337286
1.135488
1.1372114
1.1388948
1.1405349
1.1421284
1.1436728
1.1451658
1.1466056
1.1479909
1.1493208
1.1505945
1.1518119
1.1529729
1.1540779
1.1551273
1.1561219
1.1570624
1.1579498
1.1587851
1.1595691
1.1603029
1.1609871
1.1616224
1.1622093
1.1627485
1.1632406
1.1636863
1.164086
1.1644393
1.1647452
1.1650033
1.1652155
1.1653859
1.1655129
1.165575
1.1656279
1.1657238
1.165062
1.0558217
1.0876968
1.0699356
1.0813547
1.0748267
1.0799766
1.0778944
1.080502
1.0803471
1.0819141
1.0826406
1.0838806
1.0849662
1.0861914
1.0874386
1.0887477
1.0901058
1.0915155
1.0929755
1.094485
1.096043
1.0976484
1.0992996
1.1009949
1.1027322
1.1045091
1.1063226
1.1081696
1.1100465
1.1119492
1.1138734
1.1158143
1.1177671
1.1197264
1.1216867
1.1236425
1.1255881
1.1275178
1.1294262
1.1313078
1.1331576
1.1349707
1.1367429
1.13847
1.1401487
1.1417759
1.1433492
1.1448666
1.1463267
1.1477285
1.1490714
1.1503553
1.1515803
1.152747
1.1538562
1.1549087
1.1559056
1.1568482
1.1577378
1.1585758
1.1593633
1.1601017
1.160792
1.1614353
1.1620322
1.1625833
1.1630892
1.1635506
1.1639679
1.1643415
1.164671
1.1649551
1.1651929
1.1653864
1.1655383
1.1656449
1.1656973
1.1657413
1.1657581
1.1652134
1.0537169
1.0859145
1.0678288
1.0795622
1.0728147
1.0782575
1.0761903
1.0789205
1.0788565
1.0805148
1.0813597
1.082693
1.0838964
1.0852279
1.0865908
1.0880151
1.0894919
1.0910225
1.0926056
1.0942403
1.0959254
1.0976591
1.0994394
1.1012641
1.1031303
1.1050348
1.1069739
1.1089435
1.1109391
1.1129558
1.1149881
1.1170306
1.1190772
1.121122
1.1231586
1.1251808
1.1271825
1.1291576
1.1311004
1.1330054
1.1348677
1.1366827
1.1384464
1.1401555
1.141807
1.1433989
1.1449295
1.1463978
1.1478032
1.1491457
1.1504258
1.1516442
1.1528018
1.1539002
1.1549407
1.1559249
1.1568545
1.1577314
1.1585571
1.1593335
1.160062
1.1607443
1.1613814
1.1619746
1.1625247
1.1630321
1.1634975
1.1639213
1.1643041
1.164646
1.1649464
1.1652038
1.1654172
1.1655879
1.1657173
1.1658021
1.1658415
1.165863
1.1658142
1.165388
1.0520097
1.0845143
1.0661516
1.0781928
1.0714097
1.0769779
1.0749196
1.0778017
1.0778396
1.0795967
1.0805698
1.0819991
1.0833264
1.0847716
1.0862582
1.087808
1.0894146
1.0910783
1.0927975
1.0945708
1.0963961
1.0982711
1.100193
1.1021586
1.1041642
1.1062053
1.1082774
1.1103752
1.1124931
1.1146249
1.1167643
1.1189046
1.1210388
1.1231602
1.1252616
1.1273364
1.129378
1.1313801
1.1333371
1.1352436
1.1370952
1.1388877
1.1406181
1.1422837
1.1438827
1.145414
1.146877
1.1482719
1.1495993
1.1508602
1.1520561
1.1531887
1.15426
1.1552721
1.1562273
1.1571277
1.1579756
1.1587732
1.1595226
1.1602259
1.1608847
1.1615009
1.1620756
1.1626102
1.1631054
1.1635618
1.1639798
1.1643597
1.1647019
1.1650064
1.1652726
1.1654987
1.1656835
1.1658272
1.1659297
1.1659908
1.1660144
1.1660031
1.1659047
1.165575
1.0506979
1.083509
1.0648932
1.0772404
1.0703988
1.0761474
1.0741622
1.077151
1.0773214
1.0791432
1.080254
1.0817879
1.0832532
1.084829
1.086457
1.0881512
1.0899066
1.0917222
1.0935959
1.0955254
1.0975077
1.0995397
1.1016174
1.1037365
1.105892
1.1080784
1.1102896
1.112519
1.1147598
1.1170045
1.1192455
1.1214751
1.1236854
1.1258687
1.1280175
1.1301248
1.1321837
1.1341883
1.1361331
1.1380136
1.1398259
1.141567
1.1432348
1.1448279
1.146346
1.1477891
1.1491581
1.1504544
1.1516799
1.1528369
1.1539278
1.1549554
1.1559225
1.156832
1.1576868
1.1584896
1.1592432
1.1599501
1.1606126
1.1612331
1.1618134
1.1623552
1.16286
1.163329
1.1637629
1.1641622
1.1645272
1.164858
1.1651549
1.1654177
1.1656454
1.1658364
1.1659892
1.1661024
1.166175
1.1662111
1.1662152
1.1661637
1.1660244
1.1657897
1.0497156
1.0828349
1.0639872
1.0766914
1.0697915
1.0757615
1.0737913
1.076959
1.0771724
1.0791183
1.0804072
1.0820772
1.0837094
1.0854442
1.0872391
1.0891024
1.0910301
1.0930201
1.0950695
1.0971752
1.099333
1.1015386
1.1037866
1.1060714
1.1083863
1.1107244
1.1130779
1.1154388
1.1177987
1.1201487
1.12248
1.1247839
1.1270517
1.1292752
1.1314466
1.1335588
1.1356054
1.1375809
1.1394809
1.1413018
1.1430411
1.1446972
1.1462695
1.1477585
1.1491651
1.1504911
1.151739
1.1529115
1.1540118
1.1550434
1.1560097
1.1569145
1.1577613
1.1585537
1.159295
1.1599885
1.1606371
1.1612436
1.1618107
1.1623405
1.162835
1.1632961
1.163725
1.1641229
1.1644904
1.1648279
1.1651355
1.1654131
1.1656608
1.1658782
1.1660643
1.1662172
1.166335
1.1664148
1.1664552
1.1664655
1.1664464
1.1663491
1.1661781
1.1660343
1.0490816
1.0825007
1.0634379
1.0765706
1.0695036
1.0755986
1.0737665
1.0770416
1.0775718
1.0796371
1.0811295
1.0829584
1.0847802
1.0866992
1.0886855
1.0907427
1.0928668
1.0950545
1.0973019
1.0996041
1.1019559
1.1043509
1.1067823
1.1092424
1.1117228
1.1142146
1.1167083
1.1191941
1.1216619
1.1241017
1.1265034
1.1288576
1.131155
1.1333874
1.1355472
1.1376279
1.139624
1.1415314
1.143347
1.145069
1.1466967
1.1482307
1.1496722
1.1510235
1.1522875
1.1534677
1.1545681
1.1555929
1.1565465
1.1574334
1.158258
1.1590248
1.159738
1.1604014
1.1610189
1.1615939
1.1621296
1.1626288
1.163094
1.1635276
1.1639315
1.1643073
1.1646563
1.1649793
1.165277
1.1655495
1.1657967
1.1660184
1.1662143
1.1663838
1.1665258
1.1666386
1.1667196
1.1667639
1.1667709
1.1667551
1.1667091
1.1665626
1.1663697
1.1663141
1.04884
1.0825523
1.0632924
1.076787
1.0696546
1.0761326
1.0744477
1.0778376
1.0785517
1.0807605
1.082487
1.0845049
1.0865441
1.0886774
1.0908835
1.0931626
1.0955098
1.0979204
1.1003885
1.1029078
1.1054706
1.1080687
1.1106929
1.1133333
1.1159792
1.1186195
1.1212427
1.1238373
1.1263917
1.1288946
1.1313353
1.133704
1.1359916
1.1381903
1.1402937
1.1422966
1.1441956
1.1459883
1.147674
1.1492534
1.150728
1.1521008
1.1533753
1.1545559
1.1556474
1.156655
1.1575841
1.1584403
1.1592289
1.1599553
1.1606247
1.1612419
1.1618114
1.1623375
1.1628241
1.1632746
1.1636922
1.1640797
1.1644395
1.1647738
1.1650843
1.1653724
1.1656393
1.1658855
1.1661116
1.1663174
1.1665027
1.166667
1.1668097
1.16693
1.1670267
1.1670983
1.1671412
1.1671489
1.1671228
1.1670809
1.1670046
1.1668084
1.1666047
1.1666324
1.0490642
1.0830658
1.0636224
1.0773412
1.0703697
1.0769839
1.0756572
1.0790948
1.080195
1.0825716
1.0845665
1.0868095
1.0890978
1.0914785
1.0939359
1.0964672
1.0990658
1.1017248
1.1044362
1.1071909
1.1099787
1.1127886
1.1156086
1.118426
1.1212276
1.124
1.1267297
1.1294035
1.1320087
1.1345335
1.136967
1.1393
1.1415246
1.1436346
1.1456258
1.1474956
1.1492431
1.1508691
1.1523758
1.1537666
1.1550461
1.1562196
1.1572931
1.1582729
1.1591656
1.1599779
1.1607164
1.1613875
1.1619975
1.1625522
1.163057
1.1635172
1.1639372
1.1643214
1.1646735
1.1649969
1.1652945
1.1655689
1.1658223
1.1660566
1.1662732
1.1664734
1.166658
1.1668274
1.1669818
1.1671209
1.1672442
1.167351
1.1674404
1.1675112
1.1675626
1.1675928
1.1675972
1.1675685
1.1675106
1.1674431
1.167333
1.1670892
1.1668872
1.1669938
1.0498128
1.0841025
1.064514
1.0786113
1.0718415
1.0786228
1.0775167
1.0811776
1.0825909
1.0851687
1.0874666
1.0899758
1.0925494
1.095215
1.097959
1.1007752
1.1036546
1.1065872
1.1095618
1.1125659
1.1155859
1.1186073
1.1216149
1.124593
1.1275256
1.1303972
1.1331927
1.1358977
1.1384994
1.1409863
1.1433491
1.1455803
1.1476747
1.1496293
1.1514433
1.1531177
1.1546553
1.1560605
1.157339
1.1584974
1.1595429
1.1604833
1.1613268
1.1620813
1.1627548
1.1633551
1.1638896
1.1643652
1.1647885
1.1651655
1.1655017
1.165802
1.166071
1.1663127
1.1665305
1.1667274
1.1669062
1.167069
1.1672176
1.1673536
1.1674782
1.1675923
1.1676963
1.1677905
1.1678747
1.1679485
1.1680111
1.1680616
1.1680987
1.1681213
1.1681282
1.1681179
1.1680845
1.1680207
1.167934
1.167841
1.1676939
1.1674074
1.1672208
1.1673992
1.0510728
1.0856468
1.0659496
1.0803952
1.0739361
1.0808735
1.0801866
1.083995
1.0858282
1.0886549
1.0912993
1.0941244
1.0970272
1.1000202
1.1030893
1.1062244
1.1094127
1.11264
1.1158909
1.1191485
1.1223951
1.1256123
1.1287814
1.1318835
1.1349006
1.1378153
1.1406119
1.1432767
1.1457981
1.1481672
1.1503779
1.1524265
1.1543123
1.1560369
1.1576039
1.159019
1.1602894
1.1614231
1.1624292
1.1633174
1.1640972
1.1647786
1.165371
1.1658838
1.1663256
1.1667047
1.1670289
1.1673051
1.1675397
1.1677387
1.1679072
1.1680497
1.1681704
1.1682729
1.16836
1.1684344
1.1684984
1.1685536
1.1686015
1.1686432
1.1686796
1.1687112
1.1687381
1.1687603
1.1687774
1.1687887
1.1687932
1.1687898
1.1687769
1.1687533
1.168718
1.1686687
1.1685989
1.1685031
1.1683913
1.1682731
1.1680864
1.1677664
1.1676098
1.1678459
1.0529301
1.0877773
1.0680367
1.0829303
1.0767298
1.0839305
1.0837215
1.0877359
1.0900367
1.0931718
1.0962112
1.0994082
1.1026895
1.1060552
1.1094882
1.1129729
1.1164911
1.1200234
1.123549
1.1270461
1.1304922
1.1338647
1.1371416
1.1403018
1.1433261
1.1461976
1.1489022
1.1514292
1.1537712
1.1559242
1.1578877
1.1596639
1.1612579
1.162677
1.1639302
1.1650278
1.165981
1.1668015
1.1675013
1.168092
1.1685852
1.1689919
1.1693223
1.1695863
1.1697926
1.1699496
1.1700645
1.1701441
1.1701943
1.1702204
1.170227
1.1702181
1.1701972
1.1701671
1.1701304
1.170089
1.1700447
1.1699987
1.169952
1.1699053
1.169859
1.1698132
1.1697679
1.1697228
1.169677
1.1696298
1.16958
1.1695262
1.1694666
1.1694001
1.1693255
1.1692396
1.169136
1.1690121
1.16888
1.1687368
1.1685093
1.1681694
1.1680564
1.168331
1.0554424
1.0905411
1.0708951
1.0862238
1.0804013
1.0878737
1.088267
1.092522
1.0953673
1.0988888
1.1023842
1.1060163
1.1097288
1.1135109
1.1173397
1.1211928
1.1250456
1.1288719
1.1326448
1.1363367
1.1399205
1.1433703
1.1466623
1.1497756
1.152693
1.1554015
1.1578925
1.1601615
1.1622085
1.1640371
1.1656541
1.1670691
1.1682936
1.1693407
1.1702245
1.1709592
1.1715594
1.1720394
1.1724127
1.1726924
1.1728908
1.173019
1.1730873
1.1731053
1.1730812
1.1730228
1.1729366
1.1728287
1.172704
1.1725672
1.172422
1.1722716
1.1721189
1.171966
1.1718147
1.1716665
1.1715225
1.1713834
1.1712498
1.1711219
1.1709998
1.1708832
1.1707718
1.1706649
1.1705617
1.170461
1.1703615
1.1702616
1.1701596
1.1700542
1.169944
1.1698248
1.1696908
1.1695439
1.1693961
1.1692282
1.1689607
1.1686173
1.1685606
1.16885
1.058677
1.0939697
1.0746891
1.0903873
1.0851506
1.0928595
1.0939915
1.0985682
1.102038
1.1060371
1.1100543
1.1141822
1.1183715
1.1226004
1.1268384
1.1310543
1.1352152
1.1392871
1.1432363
1.1470304
1.1506396
1.1540379
1.1572042
1.1601227
1.1627831
1.1651811
1.1673176
1.1691979
1.1708317
1.1722316
1.1734126
1.1743913
1.1751852
1.1758121
1.1762898
1.1766353
1.176865
1.1769942
1.1770372
1.1770069
1.1769152
1.1767729
1.1765894
1.1763732
1.1761318
1.1758716
1.1755984
1.1753169
1.1750314
1.1747453
1.1744615
1.1741826
1.1739103
1.1736463
1.1733916
1.1731471
1.1729134
1.1726907
1.172479
1.1722783
1.1720881
1.1719081
1.1717374
1.1715752
1.1714205
1.171272
1.1711282
1.1709873
1.1708477
1.1707082
1.1705666
1.170418
1.1702582
1.1700936
1.1699342
1.1697432
1.1694385
1.169106
1.1691189
1.1693942
1.0627161
1.0981517
1.079506
1.0955828
1.0911255
1.0991397
1.1011653
1.1061595
1.1103325
1.1148981
1.1194962
1.1241672
1.1288598
1.1335395
1.1381644
1.1426923
1.1470805
1.1512878
1.1552764
1.1590137
1.1624733
1.165636
1.1684902
1.1710318
1.1732632
1.175193
1.1768343
1.1782043
1.1793225
1.1802101
1.1808892
1.1813818
1.1817096
1.181893
1.1819516
1.1819033
1.1817647
1.1815507
1.1812749
1.1809492
1.1805842
1.1801894
1.1797729
1.1793418
1.1789021
1.178459
1.1780171
1.1775799
1.1771504
1.1767313
1.1763245
1.1759315
1.1755535
1.1751914
1.1748456
1.1745163
1.1742036
1.1739073
1.1736271
1.1733624
1.1731126
1.1728769
1.1726543
1.1724438
1.1722441
1.1720539
1.1718715
1.1716952
1.1715233
1.1713547
1.1711863
1.1710131
1.1708328
1.1706556
1.1704874
1.1702766
1.1699433
1.1696283
1.1697154
1.1699703
1.0677459
1.103544
1.0855999
1.1021391
1.098679
1.1070495
1.110117
1.1156307
1.1205743
1.1257862
1.1310111
1.1362468
1.1414309
1.1465114
1.1514326
1.1561415
1.1605891
1.1647338
1.1685424
1.1719918
1.1750689
1.1777705
1.180102
1.1820763
1.1837121
1.1850324
1.186063
1.1868312
1.1873647
1.187691
1.1878363
1.1878253
1.1876811
1.1874247
1.1870751
1.1866494
1.1861628
1.1856287
1.1850587
1.1844632
1.1838508
1.1832291
1.1826046
1.1819827
1.1813681
1.1807643
1.1801747
1.1796016
1.179047
1.1785124
1.177999
1.1775074
1.1770382
1.1765914
1.176167
1.1757647
1.1753841
1.1750246
1.1746855
1.1743659
1.1740649
1.1737815
1.1735145
1.1732626
1.1730247
1.172799
1.172584
1.1723779
1.1721794
1.1719868
1.1717966
1.1716038
1.171409
1.1712239
1.171048
1.1708213
1.1704761
1.1701864
1.1703352
1.1705749
1.0740604
1.1103785
1.0931708
1.1104038
1.1081712
1.1169372
1.1212012
1.1273612
1.13314
1.1390599
1.1449202
1.1506787
1.1562554
1.1615811
1.1665914
1.171232
1.175461
1.1792504
1.182586
1.1854665
1.1879024
1.1899131
1.1915251
1.1927697
1.1936811
1.1942944
1.1946448
1.1947662
1.1946905
1.1944474
1.1940639
1.1935645
1.1929709
1.1923025
1.1915761
1.1908064
1.1900062
1.1891863
1.1883562
1.1875236
1.1866954
1.185877
1.1850731
1.1842874
1.1835229
1.1827821
1.1820668
1.1813783
1.1807177
1.1800854
1.1794819
1.1789071
1.1783608
1.1778427
1.1773521
1.1768884
1.1764506
1.176038
1.1756493
1.1752836
1.1749397
1.1746163
1.1743122
1.174026
1.1737562
1.1735013
1.1732596
1.1730296
1.1728098
1.1725983
1.1723911
1.1721842
1.171981
1.1717925
1.1716096
1.1713694
1.1710287
1.1707817
1.1709785
1.1711889
1.081933
1.1189217
1.1026955
1.1206449
1.1200207
1.1292688
1.134891
1.1418417
1.1484849
1.1550945
1.1614856
1.1675819
1.1732922
1.1785456
1.1832883
1.187486
1.1911244
1.1942063
1.1967497
1.1987842
1.2003474
1.2014823
1.202234
1.2026484
1.2027696
1.2026396
1.2022973
1.201778
1.2011134
1.2003316
1.1994572
1.1985118
1.1975138
1.1964793
1.1954217
1.1943527
1.1932819
1.1922173
1.1911658
1.1901328
1.1891228
1.1881394
1.1871855
1.1862633
1.1853744
1.1845198
1.1837004
1.1829165
1.1821682
1.1814553
1.1807775
1.180134
1.1795242
1.1789473
1.1784021
1.1778877
1.1774029
1.1769465
1.1765172
1.1761136
1.1757346
1.1753785
1.1750442
1.1747301
1.1744347
1.1741565
1.1738937
1.1736451
1.1734093
1.1731837
1.1729643
1.1727489
1.172543
1.172355
1.172167
1.1719171
1.1715913
1.1714012
1.1716375
1.1717987
1.0915703
1.1294725
1.1149368
1.1334689
1.1349187
1.1447668
1.1518294
1.1596272
1.1670166
1.1740966
1.1806915
1.1867157
1.1920962
1.1967923
1.20079
1.2041001
1.2067526
1.2087922
1.2102726
1.2112529
1.2117934
1.2119534
1.211789
1.2113519
1.2106891
1.2098424
1.2088486
1.2077398
1.2065434
1.2052832
1.2039792
1.2026483
1.2013046
1.1999601
1.1986245
1.197306
1.1960109
1.1947447
1.1935115
1.1923147
1.1911566
1.1900392
1.1889638
1.187931
1.1869414
1.1859951
1.1850916
1.1842308
1.1834117
1.1826338
1.1818959
1.181197
1.180536
1.1799116
1.1793224
1.1787671
1.1782443
1.1777526
1.1772906
1.1768567
1.1764495
1.1760675
1.1757092
1.1753731
1.1750578
1.1747615
1.1744829
1.1742208
1.1739734
1.1737381
1.1735112
1.1732925
1.1730885
1.1729037
1.172713
1.1724603
1.1721589
1.1720281
1.1722887
1.1723919
1.1037771
1.142936
1.1306881
1.1498545
1.1538092
1.1642815
1.1726161
1.1810459
1.1887634
1.1957803
1.2019688
1.2072851
1.211717
1.2152888
1.2180497
1.2200671
1.2214184
1.2221852
1.2224482
1.2222845
1.2217649
1.2209533
1.2199062
1.2186725
1.2172946
1.2158084
1.2142444
1.212628
1.2109804
1.2093192
1.2076589
1.2060113
1.2043859
1.2027905
1.2012312
1.1997127
1.1982389
1.1968124
1.1954352
1.1941088
1.1928338
1.1916107
1.1904394
1.1893197
1.1882508
1.1872321
1.1862625
1.1853409
1.1844661
1.1836368
1.1828515
1.1821088
1.1814072
1.1807452
1.1801211
1.1795335
1.1789807
1.1784612
1.1779733
1.1775156
1.1770864
1.1766842
1.1763074
1.1759546
1.1756243
1.1753148
1.1750249
1.1747534
1.1744985
1.1742573
1.1740272
1.1738095
1.1736108
1.1734308
1.1732401
1.1729932
1.1727256
1.1726457
1.172906
1.1729581
1.1200235
1.1604265
1.1512877
1.1708028
1.1775281
1.1884087
1.1973878
1.2057618
1.2129933
1.2191036
1.2240731
1.2279518
1.2308185
1.2327756
1.2339349
1.2344102
1.2343103
1.2337354
1.232775
1.2315075
1.2300002
1.2283102
1.2264853
1.2245652
1.2225828
1.2205648
1.2185332
1.2165056
1.2144962
1.2125163
1.210575
1.2086791
1.206834
1.2050438
1.2033114
1.2016388
1.2000273
1.1984777
1.19699
1.1955642
1.1941996
1.1928954
1.1916506
1.190464
1.1893342
1.1882597
1.1872391
1.1862706
1.1853526
1.1844835
1.1836614
1.1828847
1.1821515
1.1814602
1.180809
1.1801961
1.17962
1.1790788
1.178571
1.1780949
1.1776488
1.1772313
1.1768407
1.1764756
1.1761344
1.1758157
1.1755184
1.1752411
1.1749819
1.1747381
1.1745083
1.1742949
1.1741034
1.1739287
1.1737405
1.1735067
1.1732787
1.1732414
1.1734861
1.1735006
1.141962
1.1831715
1.1780482
1.1971647
1.2061776
1.216778
1.2252582
1.2324197
1.2380707
1.2423231
1.2452912
1.2471339
1.2480144
1.2480934
1.2475183
1.2464201
1.244912
1.2430894
1.2410318
1.2388044
1.2364605
1.2340428
1.2315858
1.2291168
1.2266575
1.2242249
1.2218323
1.2194899
1.2172054
1.2149847
1.2128319
1.2107499
1.2087407
1.2068053
1.2049441
1.2031569
1.2014432
1.199802
1.1982322
1.1967324
1.1953009
1.1939362
1.1926364
1.1913996
1.190224
1.1891075
1.1880482
1.1870442
1.1860934
1.1851938
1.1843436
1.1835408
1.1827834
1.1820695
1.1813974
1.1807651
1.180171
1.1796133
1.1790902
1.1786001
1.1781414
1.1777124
1.1773118
1.1769378
1.1765891
1.1762644
1.1759626
1.1756822
1.1754213
1.1751777
1.1749509
1.1747441
1.1745604
1.1743912
1.1742086
1.173994
1.1738082
1.1738058
1.1740211
1.1739859
1.1721876
1.2117617
1.2118574
1.2295708
1.2384998
1.247418
1.2539926
1.2587533
1.2618187
1.263468
1.2639419
1.2634754
1.2622706
1.2605001
1.258306
1.2558036
1.2530852
1.2502239
1.2472768
1.2442886
1.2412939
1.2383192
1.2353846
1.2325056
1.2296933
1.2269563
1.2243002
1.2217292
1.2192459
1.2168516
1.2145468
1.2123313
1.2102044
1.2081649
1.2062113
1.2043418
1.2025546
1.2008475
1.1992183
1.1976649
1.1961849
1.194776
1.1934359
1.1921622
1.1909527
1.189805
1.1887169
1.1876862
1.1867107
1.1857882
1.1849166
1.1840938
1.1833178
1.1825867
1.1818985
1.1812513
1.1806434
1.1800729
1.1795382
1.1790375
1.1785692
1.1781319
1.1777238
1.1773436
1.17699
1.1766616
1.1763573
1.1760758
1.175815
1.1755735
1.1753515
1.1751519
1.1749756
1.1748122
1.1746386
1.174448
1.1743021
1.1743213
1.174501
1.1744444
1.2132191
1.2477925
1.250752
1.2647479
1.27229
1.2778703
1.2809836
1.2823152
1.28218
1.2809468
1.2788919
1.2762442
1.2731805
1.2698378
1.2663201
1.2627062
1.2590549
1.2554101
1.2518042
1.2482607
1.2447968
1.2414243
1.2381515
1.2349838
1.2319244
1.2289748
1.2261354
1.2234056
1.2207841
1.2182692
1.2158587
1.2135501
1.211341
1.2092285
1.2072098
1.2052822
1.2034426
1.2016883
1.2000164
1.1984241
1.1969086
1.1954671
1.1940971
1.1927958
1.1915606
1.1903892
1.189279
1.1882277
1.1872328
1.1862922
1.1854037
1.1845651
1.1837742
1.1830292
1.182328
1.1816687
1.1810495
1.1804687
1.1799245
1.1794153
1.1789394
1.1784952
1.1780814
1.1776965
1.1773392
1.1770083
1.1767027
1.176421
1.1761614
1.175923
1.1757063
1.1755135
1.1753435
1.175186
1.1750243
1.1748601
1.1747478
1.1747739
1.1749122
1.174847
1.2624561
1.2886295
1.2928913
1.3005755
1.3034606
1.3043342
1.303274
1.3009622
1.2977546
1.2939605
1.289794
1.2854131
1.2809301
1.2764247
1.2719531
1.2675542
1.2632548
1.2590726
1.2550192
1.2511013
1.2473225
1.2436842
1.2401856
1.2368253
1.2336007
1.2305088
1.2275461
1.2247089
1.2219935
1.2193959
1.2169123
1.2145388
1.2122717
1.2101071
1.2080414
1.2060711
1.2041927
1.2024029
1.2006983
1.1990758
1.1975323
1.1960649
1.1946706
1.1933466
1.1920902
1.1908987
1.1897696
1.1887005
1.1876888
1.1867323
1.1858287
1.1849758
1.1841716
1.1834139
1.1827008
1.1820305
1.181401
1.1808106
1.1802577
1.1797404
1.1792574
1.178807
1.1783878
1.1779985
1.1776378
1.1773046
1.1769977
1.1767157
1.1764575
1.1762222
1.1760104
1.175823
1.1756579
1.1755068
1.1753594
1.1752217
1.1751342
1.1751496
1.1752361
1.1751789
1.317261
1.3289762
1.3304148
1.3305092
1.3278568
1.3239602
1.3191328
1.3138087
1.3082245
1.3025523
1.2969007
1.2913408
1.2859173
1.2806575
1.275577
1.2706836
1.2659799
1.2614651
1.2571363
1.252989
1.2490179
1.2452173
1.2415809
1.2381029
1.2347771
1.2315975
1.2285586
1.2256546
1.2228802
1.2202303
1.2177
1.2152846
1.2129795
1.2107804
1.2086832
1.206684
1.2047788
1.2029641
1.2012364
1.1995923
1.1980285
1.1965419
1.1951295
1.1937884
1.1925158
1.1913089
1.1901651
1.189082
1.188057
1.1870879
1.1861723
1.185308
1.1844929
1.183725
1.1830023
1.1823228
1.1816849
1.1810867
1.1805266
1.1800028
1.1795139
1.1790584
1.1786348
1.1782419
1.1778784
1.1775433
1.1772353
1.1769532
1.1766962
1.1764635
1.1762555
1.176072
1.1759107
1.1757662
1.1756338
1.1755196
1.1754482
1.1754462
1.1754886
1.1754484
1.3672933
1.3615374
1.3571643
1.3511877
1.3439852
1.3365629
1.3290925
1.3217582
1.3146429
1.3077924
1.3012264
1.29495
1.2889599
1.283248
1.2778038
1.2726154
1.2676706
1.2629573
1.258464
1.2541793
1.2500929
1.2461946
1.2424753
1.2389262
1.2355392
1.2323066
1.2292214
1.2262768
1.2234665
1.2207848
1.218226
1.2157849
1.2134566
1.2112364
1.2091199
1.2071029
1.2051813
1.2033513
1.2016093
1.1999518
1.1983753
1.1968768
1.1954531
1.1941013
1.1928184
1.1916018
1.1904488
1.1893567
1.1883233
1.187346
1.1864226
1.1855509
1.1847287
1.183954
1.1832249
1.1825394
1.1818957
1.1812922
1.1807271
1.1801987
1.1797057
1.1792465
1.1788197
1.178424
1.1780583
1.1777214
1.1774122
1.1771297
1.176873
1.1766417
1.1764356
1.1762538
1.1760945
1.1759551
1.1758346
1.1757376
1.1756745
1.1756528
1.1756624
1.1756417
1.394335
1.3830129
1.3722038
1.362747
1.3534189
1.344419
1.3358227
1.327647
1.3198925
1.3125431
1.3055792
1.2989782
1.2927178
1.2867763
1.2811333
1.27577
1.2706689
1.265814
1.2611906
1.2567855
1.2525863
1.2485818
1.2447617
1.2411164
1.2376373
1.2343162
1.2311456
1.2281186
1.2252286
1.2224696
1.2198359
1.2173222
1.2149234
1.2126348
1.2104519
1.2083705
1.2063865
1.204496
1.2026954
1.2009811
1.1993499
1.1977983
1.1963235
1.1949223
1.1935918
1.1923295
1.1911324
1.1899982
1.1889242
1.1879082
1.1869477
1.1860406
1.1851848
1.1843781
1.1836185
1.1829042
1.1822334
1.1816043
1.1810152
1.1804644
1.1799505
1.1794719
1.1790273
1.1786154
1.1782349
1.1778847
1.1775636
1.1772708
1.1770054
1.1767669
1.1765549
1.1763683
1.1762057
1.1760657
1.1759484
1.1758564
1.1757945
1.1757647
1.1757583
1.1757488
1.1643052
1.1704565
1.1832447
1.1945398
1.1986372
1.1984808
1.1994617
1.1998408
1.1999867
1.1999116
1.1996045
1.199166
1.1985939
1.1979529
1.1972718
1.1965611
1.1958193
1.195051
1.1942607
1.1934519
1.1926279
1.1917915
1.1909453
1.1900917
1.1892327
1.1883705
1.1875069
1.1866436
1.1857824
1.1849249
1.1840727
1.1832273
1.1823901
1.1815626
1.1807461
1.1799419
1.1791515
1.178376
1.1776168
1.1768751
1.1761521
1.1754491
1.1747673
1.1741079
1.173472
1.1728607
1.1722751
1.1717162
1.1711849
1.1706822
1.1702087
1.1697653
1.1693523
1.1689701
1.168619
1.1682989
1.1680098
1.1677513
1.1675228
1.1673234
1.1671518
1.1670063
1.1668854
1.1667867
1.1667081
1.1666459
1.1665985
1.1665592
1.1665332
1.1664987
1.1664922
1.1664245
1.166457
1.1662838
1.1664324
1.166006
1.166418
1.1655651
1.1663695
1.1649381
1.1676485
1.1758492
1.1919577
1.1970522
1.1971294
1.1966541
1.1959324
1.1955656
1.1951413
1.1946736
1.1941732
1.1937076
1.1932406
1.1927707
1.1922765
1.1917583
1.1912155
1.1906497
1.1900613
1.1894513
1.1888208
1.1881713
1.1875046
1.1868224
1.1861266
1.1854193
1.1847024
1.1839779
1.1832477
1.1825139
1.1817783
1.1810429
1.1803095
1.1795798
1.1788558
1.1781391
1.1774314
1.1767344
1.1760497
1.175379
1.1747238
1.1740857
1.1734661
1.1728666
1.1722883
1.1717328
1.1712013
1.1706949
1.1702147
1.1697618
1.169337
1.168941
1.1685744
1.1682376
1.1679308
1.167654
1.1674071
1.1671897
1.1670011
1.1668405
1.1667062
1.1665967
1.1665103
1.1664446
1.1663973
1.1663649
1.1663453
1.1663325
1.1663305
1.16632
1.1663326
1.1662882
1.1663324
1.1661832
1.1663343
1.1659387
1.1663488
1.1655159
1.1663381
1.1648823
1.1584385
1.1741286
1.1861773
1.1908446
1.1906764
1.1901589
1.1895531
1.1893522
1.1890476
1.1888512
1.1885892
1.1883391
1.1880394
1.1877243
1.1873787
1.187012
1.1866204
1.1862058
1.1857685
1.1853093
1.1848294
1.1843297
1.1838115
1.1832762
1.182725
1.1821595
1.1815812
1.1809917
1.1803926
1.1797855
1.1791724
1.1785549
1.1779348
1.177314
1.1766943
1.1760776
1.1754657
1.1748604
1.1742636
1.1736771
1.1731027
1.1725422
1.1719972
1.1714694
1.1709603
1.1704716
1.1700046
1.1695607
1.1691411
1.168747
1.1683793
1.1680388
1.1677261
1.1674417
1.1671859
1.1669586
1.1667596
1.1665887
1.166445
1.1663275
1.1662347
1.166165
1.1661164
1.1660868
1.1660736
1.1660733
1.1660837
1.1660993
1.1661231
1.1661376
1.1661708
1.1661504
1.1662078
1.1660818
1.1662374
1.1658713
1.1662789
1.1654668
1.1663069
1.1648265
1.1574037
1.1771049
1.1846646
1.1880211
1.1868653
1.1864814
1.1857524
1.1855006
1.185052
1.1847513
1.184374
1.1840634
1.1837276
1.1834115
1.1830824
1.1827514
1.1824106
1.1820613
1.1817014
1.18133
1.1809464
1.1805499
1.1801405
1.179718
1.1792827
1.1788349
1.1783752
1.1779045
1.1774236
1.1769337
1.1764361
1.1759321
1.1754231
1.1749107
1.1743966
1.1738824
1.1733699
1.1728609
1.1723573
1.1718608
1.1713734
1.1708968
1.1704329
1.1699835
1.1695502
1.1691348
1.1687387
1.1683634
1.1680104
1.1676807
1.1673755
1.1670955
1.1668416
1.1666141
1.1664133
1.1662393
1.1660918
1.1659704
1.1658745
1.1658028
1.1657538
1.1657258
1.1657169
1.1657248
1.1657469
1.1657798
1.1658211
1.1658656
1.1659157
1.1659556
1.1660101
1.166013
1.166085
1.1659805
1.1661434
1.165803
1.1662122
1.1654181
1.166275
1.1647748
1.1551273
1.1751353
1.1805529
1.1832257
1.1815971
1.1814679
1.180703
1.1805757
1.1801394
1.179937
1.1796216
1.1793977
1.1791302
1.1788917
1.1786373
1.1783869
1.178129
1.1778666
1.1775965
1.1773181
1.1770306
1.1767331
1.1764253
1.1761068
1.1757775
1.1754375
1.1750868
1.174726
1.1743555
1.1739761
1.1735884
1.1731936
1.1727927
1.1723869
1.1719777
1.1715665
1.1711548
1.1707444
1.170337
1.1699342
1.1695381
1.1691502
1.1687726
1.1684069
1.1680549
1.1677184
1.1673989
1.1670979
1.166817
1.1665572
1.1663198
1.1661055
1.1659151
1.1657491
1.1656078
1.1654912
1.165399
1.1653308
1.1652857
1.1652627
1.1652602
1.1652763
1.1653091
1.1653564
1.1654154
1.1654828
1.1655562
1.1656306
1.1657078
1.1657736
1.1658501
1.1658763
1.1659637
1.1658803
1.1660514
1.1657355
1.1661469
1.1653703
1.1662429
1.1647259
1.1498428
1.1720946
1.1758568
1.1782804
1.1763578
1.1765826
1.1757889
1.1758119
1.1753953
1.1752851
1.175012
1.1748613
1.1746529
1.1744868
1.1743016
1.1741247
1.1739414
1.1737564
1.1735662
1.1733702
1.1731676
1.1729578
1.1727401
1.1725142
1.1722798
1.1720366
1.1717845
1.1715237
1.1712542
1.1709766
1.1706912
1.1703989
1.1701002
1.1697963
1.1694883
1.1691773
1.1688647
1.168552
1.1682407
1.1679324
1.1676289
1.1673318
1.167043
1.166764
1.1664967
1.1662427
1.1660036
1.165781
1.1655762
1.1653904
1.1652247
1.1650801
1.1649571
1.1648563
1.1647779
1.164722
1.1646882
1.164676
1.1646845
1.1647126
1.1647585
1.1648206
1.1648968
1.1649848
1.1650819
1.1651849
1.1652911
1.165396
1.1655009
1.1655928
1.1656916
1.165741
1.1658444
1.1657819
1.1659615
1.165669
1.1660838
1.1653238
1.1662118
1.1646802
1.144518
1.1694582
1.1710613
1.1734036
1.1712449
1.1717589
1.1709201
1.1710887
1.1706927
1.1706876
1.1704704
1.1704042
1.1702626
1.1701719
1.1700562
1.1699513
1.1698391
1.1697271
1.1696115
1.1694919
1.1693677
1.1692383
1.1691031
1.1689616
1.1688134
1.1686581
1.1684956
1.1683258
1.1681488
1.1679647
1.1677738
1.1675767
1.1673739
1.1671662
1.1669544
1.1667396
1.1665228
1.1663054
1.1660887
1.1658741
1.1656631
1.1654573
1.1652583
1.1650677
1.1648871
1.1647181
1.1645622
1.1644208
1.1642952
1.1641867
1.1640961
1.1640244
1.1639721
1.1639397
1.1639273
1.163935
1.1639623
1.1640087
1.1640731
1.1641543
1.1642507
1.1643604