/*--------------------------------*- C++ -*----------------------------------*\
| =========                 |                                                 |
| \\      /  F ield         | OpenFOAM: The Open Source CFD Toolbox           |
|  \\    /   O peration     | Version:  2512                                  |
|   \\  /    A nd           | Website:  www.openfoam.com                      |
|    \\/     M anipulation  |                                                 |
\*---------------------------------------------------------------------------*/
FoamFile
{
    version     2.0;
    format      ascii;
    arch        "LSB;label=32;scalar=64";
    class       volScalarField;
    location    "0.144";
    object      T;
}
// * * * * * * * * * * * * * * * * * * * * * * * * * * * * * * * * * * * * * //

dimensions      [0 0 0 1 0 0 0];

internalField   nonuniform List<scalar> 
16000
(
292.63856
284.84356
289.23747
286.94917
288.61552
287.86175
288.52808
288.32809
288.63091
288.64219
288.80717
288.89414
289.01877
289.1293
289.24794
289.36679
289.48893
289.61373
289.74161
289.87266
290.007
290.14472
290.28587
290.43049
290.57855
290.73004
290.88487
291.04296
291.20417
291.36832
291.53524
291.70468
291.8764
292.05009
292.22543
292.40209
292.57969
292.75785
292.93616
293.1142
293.29155
293.46778
293.64247
293.81521
293.9856
294.15326
294.31782
294.47898
294.63642
294.78989
294.93917
295.08408
295.22447
295.36026
295.49137
295.6178
295.73956
295.85671
295.96931
296.07751
296.18149
296.28147
296.37769
296.47048
296.56022
296.64729
296.73209
296.815
296.89642
296.97687
297.05705
297.13776
297.21957
297.30262
297.38696
297.47257
297.57006
297.63871
297.79577
297.82258
292.3244
284.42527
288.98518
286.56512
288.32498
287.50675
288.23149
288.00559
288.33155
288.34464
288.51653
288.6129
288.74328
288.86289
288.98908
289.1166
289.24733
289.3811
289.51815
289.65861
289.8026
289.95016
290.10135
290.25615
290.41453
290.57642
290.74172
290.91028
291.08194
291.25648
291.43366
291.61319
291.79478
291.97807
292.1627
292.34828
292.53438
292.72057
292.90642
293.09147
293.27527
293.45736
293.63732
293.81473
293.98918
294.16031
294.32778
294.49129
294.65057
294.80539
294.95559
295.10102
295.24158
295.37724
295.50796
295.63379
295.75478
295.87103
295.98266
296.08983
296.19274
296.29164
296.38679
296.47852
296.56723
296.65332
296.7372
296.81927
296.89992
296.97967
297.05921
297.13938
297.22082
297.30368
297.38801
297.47528
297.56639
297.65619
297.77653
297.84694
291.99697
284.0448
288.68199
286.24245
288.02952
287.21423
287.9399
287.73226
288.05529
288.08531
288.25934
288.36793
288.50528
288.63489
288.77028
288.9077
289.04853
289.19271
289.34045
289.49186
289.64702
289.80596
289.96868
290.13515
290.30528
290.47896
290.65603
290.83632
291.01957
291.20554
291.39391
291.58434
291.77645
291.96985
292.16409
292.35873
292.5533
292.7473
292.94026
293.13168
293.32109
293.50803
293.69204
293.87273
294.0497
294.2226
294.39115
294.55507
294.71416
294.86824
295.0172
295.16096
295.29948
295.4328
295.56094
295.68401
295.80212
295.91541
296.02406
296.12825
296.22824
296.32429
296.41669
296.50579
296.59198
296.67568
296.75733
296.83732
296.91605
296.99401
297.07187
297.15049
297.23055
297.31224
297.39563
297.48179
297.57168
297.66552
297.77529
297.85622
291.70347
283.69598
288.43739
285.95427
287.78011
286.94895
287.68728
287.49021
287.81638
287.86152
288.03973
288.16108
288.30653
288.44709
288.5927
288.74102
288.89292
289.04847
289.2078
289.37102
289.53815
289.7092
289.88414
290.06288
290.2453
290.43124
290.62048
290.81277
291.00782
291.20529
291.40481
291.60596
291.8083
292.01135
292.2146
292.41755
292.61967
292.82042
293.01929
293.21574
293.40931
293.5995
293.7859
293.96811
294.14578
294.31861
294.48635
294.64881
294.80582
294.95731
295.10321
295.24353
295.37832
295.50765
295.63166
295.75047
295.86429
295.97329
296.0777
296.17775
296.27371
296.36588
296.45457
296.54014
296.62298
296.70353
296.78223
296.85947
296.93566
297.01127
297.08695
297.16355
297.2418
297.32198
297.40412
297.48884
297.57762
297.67352
297.77323
297.86858
291.43354
283.38178
288.20339
285.69477
287.57735
286.72665
287.46869
287.29097
287.61612
287.68057
287.863
287.99876
288.15381
288.3065
288.46373
288.62416
288.78837
288.95646
289.12854
289.30468
289.48488
289.66911
289.85729
290.04928
290.24491
290.44394
290.64609
290.85103
291.05839
291.26774
291.47862
291.69052
291.90293
292.11527
292.32698
292.53747
292.74617
292.9525
293.15591
293.35586
293.55187
293.74348
293.9303
294.11197
294.2882
294.45875
294.62346
294.7822
294.93492
295.0816
295.22229
295.35708
295.48609
295.60948
295.72746
295.84023
295.94804
296.05113
296.14978
296.24424
296.33482
296.42184
296.50562
296.58653
296.66499
296.74141
296.81624
296.88988
296.96273
297.03524
297.10802
297.18192
297.25771
297.33576
297.41593
297.4986
297.58617
297.6812
297.77652
297.87606
291.19371
283.1125
288.00467
285.4802
287.37029
286.55162
287.29958
287.13913
287.46408
287.54805
287.73573
287.88659
288.0525
288.21809
288.38794
288.56141
288.7389
288.92052
289.10636
289.29646
289.49077
289.6892
289.89161
290.09779
290.30746
290.52032
290.73599
290.95402
291.17395
291.39525
291.61734
291.83963
292.0615
292.28231
292.5014
292.71814
292.93191
293.14209
293.34814
293.54952
293.74577
293.93649
294.12133
294.30001
294.47234
294.63815
294.79739
294.95003
295.09613
295.23577
295.36911
295.49631
295.61761
295.73325
295.84349
295.94862
296.04893
296.14472
296.23629
296.32396
296.40804
296.48886
296.56676
296.64212
296.71534
296.78685
296.85708
296.92643
296.9953
297.06411
297.13343
297.20408
297.2769
297.35231
297.43003
297.51031
297.59609
297.68922
297.78041
297.88371
290.98574
282.88784
287.84035
285.31319
287.21666
286.42835
287.1669
287.04043
287.35663
287.4673
287.66123
287.82752
288.00544
288.18478
288.36845
288.55622
288.74837
288.94497
289.14607
289.35161
289.56148
289.7755
289.99343
290.21495
290.43969
290.66722
290.89702
291.12856
291.36121
291.59434
291.82726
292.05927
292.28965
292.51768
292.74264
292.96386
293.18068
293.3925
293.59878
293.79905
293.99288
294.17996
294.36004
294.53295
294.69858
294.85694
295.00806
295.15205
295.28908
295.41937
295.54316
295.66073
295.7724
295.87849
295.97933
296.07528
296.16666
296.25383
296.33712
296.41686
296.49339
296.56704
296.63817
296.70714
296.77435
296.84021
296.90515
296.96957
297.03385
297.09838
297.16368
297.23055
297.29987
297.37212
297.44688
297.52437
297.60787
297.69822
297.78571
297.89038
290.80969
282.70798
287.70949
285.18273
287.09161
286.3299
287.07458
286.96262
287.3061
287.43665
287.63848
287.82126
288.01338
288.20836
288.40798
288.61217
288.82108
289.03473
289.25304
289.4759
289.70306
289.93426
290.16911
290.40717
290.64793
290.89081
291.13516
291.38028
291.62543
291.86982
292.11266
292.35313
292.59043
292.82377
293.0524
293.27562
293.4928
293.70338
293.90686
294.10287
294.29109
294.47133
294.64346
294.80747
294.9634
295.11139
295.25163
295.38437
295.5099
295.62857
295.74072
295.84674
295.94701
296.04193
296.13191
296.21733
296.29857
296.376
296.44999
296.52088
296.589
296.65471
296.71834
296.78024
296.8408
296.90043
296.95953
297.01849
297.07768
297.13744
297.19827
297.26091
297.32628
297.39489
297.46625
297.54063
297.62131
297.70808
297.79179
297.89724
290.65788
282.56918
287.61386
285.0906
287.02575
286.32426
287.05156
286.98294
287.29675
287.45558
287.66958
287.87158
288.0812
288.2946
288.51291
288.73609
288.96423
289.19725
289.43498
289.67717
289.92347
290.17343
290.42655
290.6822
290.9397
291.1983
291.45719
291.71549
291.97231
292.22674
292.47785
292.72475
292.96657
293.20249
293.43177
293.65373
293.86781
294.07353
294.27053
294.45856
294.63748
294.80726
294.96795
295.11971
295.26277
295.39743
295.52403
295.64298
295.75469
295.85961
295.95821
296.05094
296.13827
296.22065
296.29851
296.37229
296.44239
296.5092
296.57308
296.63438
296.69344
296.75059
296.80615
296.86047
296.91391
296.96684
297.01966
297.07273
297.12641
297.18102
297.23699
297.29501
297.35603
297.42056
297.48816
297.55916
297.63652
297.71893
297.79876
297.90425
290.52976
282.47324
287.55822
285.05952
287.00957
286.31207
287.03717
287.01947
287.34819
287.53523
287.76481
287.98801
288.21794
288.45238
288.69203
288.93684
289.18674
289.44154
289.70092
289.96446
290.23163
290.5018
290.77424
291.04815
291.32263
291.59672
291.86942
292.13969
292.40648
292.66875
292.92549
293.17576
293.41866
293.6534
293.87931
294.09581
294.30247
294.49898
294.68517
294.861
295.02654
295.18196
295.32754
295.46364
295.59069
295.70914
295.81951
295.92233
296.01815
296.1075
296.19092
296.26896
296.3421
296.41085
296.47567
296.53699
296.59524
296.65079
296.70401
296.75523
296.80478
296.85297
296.9001
296.94648
296.99246
297.03839
297.08462
297.13152
297.1794
297.22856
297.27938
297.3325
297.38883
297.44892
297.51245
297.57987
297.65344
297.73079
297.80667
297.91169
290.42833
282.42768
287.54591
285.12017
287.03915
286.42269
287.09909
287.1566
287.46468
287.68232
287.93163
288.17876
288.4323
288.69089
288.95495
289.2243
289.49871
289.7778
290.06105
290.34783
290.63736
290.92878
291.22111
291.51328
291.80416
292.09257
292.37732
292.65719
292.93102
293.19767
293.45611
293.70538
293.94468
294.17331
294.39076
294.59666
294.79078
294.97308
295.14365
295.3027
295.45057
295.58768
295.71455
295.83174
295.93985
296.03953
296.13142
296.21617
296.2944
296.36674
296.43378
296.49609
296.55419
296.60859
296.65976
296.70814
296.75412
296.79807
296.84034
296.88123
296.92106
296.96009
296.99861
297.0369
297.07527
297.11403
297.15352
297.19406
297.23595
297.27948
297.32497
297.37299
297.42439
297.4797
297.53894
297.60266
297.67201
297.74371
297.81564
297.9197
290.36003
282.44219
287.58241
285.21345
287.09347
286.56018
287.23956
287.33121
287.65624
287.90587
288.17961
288.45399
288.73479
289.02099
289.31277
289.60976
289.9115
290.21735
290.52652
290.83808
291.15094
291.46394
291.77579
292.08515
292.39062
292.69082
292.98436
293.26991
293.54622
293.81217
294.06677
294.30921
294.53884
294.75522
294.95811
295.14744
295.32331
295.486
295.63592
295.7736
295.89964
296.01474
296.11962
296.21506
296.30181
296.38065
296.45232
296.51756
296.57704
296.63144
296.68135
296.72736
296.76999
296.80973
296.84703
296.8823
296.91591
296.94821
296.97951
297.01008
297.04019
297.07009
297.10003
297.13024
297.16099
297.19258
297.22529
297.25944
297.29529
297.3331
297.37317
297.41601
297.46229
297.51259
297.56737
297.62731
297.69209
297.75758
297.82564
297.92852
290.33095
282.52714
287.67991
285.39701
287.21974
286.78634
287.44095
287.59528
287.93209
288.21646
288.51949
288.82511
289.13727
289.45497
289.77808
290.10596
290.43781
290.77264
291.10928
291.44641
291.78258
292.11626
292.44584
292.76967
293.08612
293.39361
293.69065
293.97588
294.24812
294.50637
294.74988
294.97809
295.19073
295.38773
295.56923
295.73558
295.88728
296.025
296.14947
296.26155
296.36211
296.45208
296.53236
296.60388
296.66752
296.72413
296.77453
296.81945
296.85963
296.89569
296.92826
296.95787
296.98503
297.01019
297.03376
297.05612
297.07758
297.09846
297.11902
297.1395
297.16013
297.18112
297.20266
297.22497
297.24828
297.27283
297.29888
297.32671
297.35656
297.38868
297.42336
297.461
297.5021
297.54725
297.59744
297.65353
297.71347
297.77234
297.83667
297.93804
290.33861
282.68754
287.83702
285.63854
287.43671
287.08734
287.73072
287.94266
288.30307
288.62587
288.96389
289.30563
289.65383
290.00732
290.36554
290.72743
291.09174
291.457
291.82157
292.18368
292.54144
292.89293
293.2362
293.56935
293.8906
294.19829
294.49098
294.76748
295.02687
295.2685
295.49204
295.69744
295.8849
296.05488
296.20801
296.34512
296.46714
296.57509
296.67006
296.75315
296.82546
296.88807
296.94205
296.98838
297.028
297.06179
297.09057
297.11508
297.13599
297.15392
297.16944
297.18303
297.19515
297.2062
297.21652
297.22645
297.23626
297.2462
297.25649
297.26733
297.27889
297.29135
297.30486
297.31961
297.33576
297.35354
297.37316
297.39487
297.41889
297.44545
297.47483
297.50735
297.54329
297.58327
297.6288
297.68091
297.73585
297.78807
297.84886
297.9479
290.38971
282.94126
288.05707
285.97315
287.73807
287.48226
288.1167
288.39242
288.78369
289.14989
289.52904
289.91242
290.30168
290.69527
291.09201
291.49027
291.8882
292.28375
292.67471
293.0588
293.43369
293.79708
294.14679
294.48082
294.7974
295.09509
295.37275
295.62966
295.86542
296.08002
296.27377
296.44726
296.60132
296.73699
296.85543
296.95792
297.04577
297.12032
297.18291
297.23482
297.27729
297.31148
297.3385
297.35934
297.37494
297.38615
297.39372
297.39836
297.40066
297.40118
297.40041
297.39878
297.39666
297.39438
297.39225
297.39051
297.38939
297.38908
297.38976
297.39157
297.39465
297.39911
297.4051
297.41273
297.42215
297.43353
297.44706
297.46294
297.48137
297.50258
297.52684
297.55438
297.58531
297.62023
297.66107
297.70892
297.75881
297.80477
297.86235
297.95754
290.48852
283.30899
288.32544
286.40433
288.11665
287.98103
288.61582
288.95895
289.39161
289.8078
290.23504
290.666
291.1012
291.53848
291.97589
292.41107
292.84142
293.26424
293.67669
294.07598
294.45944
294.82459
295.16927
295.4917
295.79054
296.06491
296.31441
296.53908
296.73939
296.91613
297.0704
297.20353
297.31698
297.41235
297.49125
297.55531
297.60613
297.64525
297.67411
297.69409
297.70645
297.71234
297.71284
297.70888
297.70132
297.69093
297.67839
297.66428
297.64914
297.63342
297.61752
297.60179
297.58653
297.57199
297.5584
297.54595
297.53481
297.52511
297.51697
297.5105
297.50579
297.50292
297.50197
297.50303
297.50622
297.51167
297.51953
297.52995
297.54313
297.55928
297.57866
297.6014
297.62752
297.65765
297.69381
297.73697
297.7817
297.82229
297.87667
297.96708
290.63871
283.80119
288.66058
286.94682
288.60663
288.60205
289.24883
289.66622
290.15111
290.62483
291.10692
291.59065
292.07527
292.55777
293.03527
293.50446
293.96194
294.40426
294.82809
295.23035
295.60836
295.95993
296.28345
296.5779
296.84287
297.07855
297.28561
297.46515
297.61864
297.74779
297.85448
297.94068
298.00839
298.05962
298.09626
298.12015
298.13301
298.13642
298.13184
298.12058
298.10385
298.08271
298.05811
298.03088
298.00177
297.97141
297.94036
297.90912
297.87808
297.84762
297.81804
297.78959
297.76248
297.73692
297.71304
297.69097
297.67083
297.65269
297.63663
297.62272
297.61099
297.60149
297.59427
297.5894
297.58693
297.58696
297.58962
297.59502
297.60333
297.61477
297.62954
297.64771
297.6693
297.69502
297.72664
297.76459
297.80379
297.84023
297.89173
297.97576
290.84496
284.37663
289.0928
287.62391
289.2297
289.37293
290.04623
290.54467
291.09237
291.63055
292.17281
292.71235
293.24685
293.77217
294.28419
294.77862
295.25127
295.69826
296.11622
296.50244
296.85497
297.17266
297.45515
297.70283
297.91672
298.09836
298.24972
298.37302
298.47068
298.54518
298.59901
298.63459
298.65423
298.6601
298.65421
298.63839
298.61431
298.58348
298.54722
298.50672
298.46302
298.41703
298.36954
298.32123
298.2727
298.22444
298.17689
298.13041
298.08529
298.0418
298.00015
297.96049
297.92298
297.88771
297.85479
297.82427
297.79621
297.77064
297.74761
297.72712
297.70918
297.69382
297.68104
297.67086
297.66333
297.65851
297.65648
297.65733
297.66122
297.66832
297.6788
297.69266
297.71001
297.73171
297.75912
297.79164
297.82467
297.8574
297.90731
297.98407
291.12422
285.10457
289.70275
288.47343
290.02353
290.32776
291.04398
291.62968
292.24918
292.8572
293.46203
294.05613
294.63516
295.19355
295.72603
296.22762
296.69407
297.12197
297.50898
297.85381
298.15626
298.41704
298.63769
298.8204
298.96781
299.08286
299.16867
299.22837
299.26505
299.28167
299.28099
299.26559
299.23781
299.19978
299.15338
299.10029
299.042
298.9798
298.91482
298.84803
298.78027
298.71225
298.6446
298.57781
298.51233
298.44852
298.38666
298.327
298.26974
298.21502
298.16297
298.11367
298.0672
298.02359
297.98288
297.94508
297.9102
297.87822
297.84914
297.82295
297.79962
297.77915
297.7615
297.74668
297.7347
297.72559
297.7194
297.71619
297.7161
297.71928
297.72581
297.73566
297.74909
297.76707
297.79058
297.81796
297.84483
297.87349
297.92224
297.99308
291.50973
286.01046
290.46914
289.53358
291.02884
291.50344
292.28217
292.96179
293.65964
294.33873
295.00185
295.64009
296.24715
296.81651
297.34273
297.82153
298.25008
298.62702
298.9524
299.22752
299.4547
299.63701
299.77808
299.88181
299.95223
299.99332
300.00892
300.00262
299.97776
299.93737
299.88416
299.82055
299.74868
299.67041
299.58738
299.50096
299.41238
299.32265
299.23264
299.1431
299.05464
298.96777
298.88293
298.80044
298.72061
298.64364
298.56971
298.49894
298.43145
298.36728
298.30649
298.24908
298.19507
298.14443
298.09715
298.05319
298.01252
297.9751
297.94089
297.90983
297.88189
297.85702
297.83519
297.81636
297.80052
297.78767
297.77783
297.77105
297.76745
297.76711
297.77004
297.77626
297.78611
297.80062
297.82034
297.84296
297.8645
297.88933
297.93624
298.00255
292.0436
287.16032
291.40442
290.84165
292.29685
292.95009
293.81158
294.58921
295.36367
296.10325
296.80548
297.46063
298.06201
298.60412
299.08361
299.49913
299.85125
300.14217
300.37539
300.55531
300.6869
300.77539
300.82601
300.84382
300.8336
300.79972
300.74618
300.6765
300.59384
300.50092
300.40012
300.29349
300.18278
300.06947
299.95483
299.83992
299.72561
299.61266
299.50167
299.39314
299.28746
299.18496
299.0859
298.99046
298.89879
298.811
298.72714
298.64725
298.57134
298.4994
298.4314
298.3673
298.30706
298.2506
298.19787
298.1488
298.10332
298.06135
298.02283
297.98769
297.95585
297.92727
297.90187
297.87962
297.86047
297.8444
297.8314
297.82152
297.81483
297.81136
297.8111
297.81406
297.82073
297.83202
297.84801
297.8661
297.88324
297.90532
297.9499
298.00992
292.76408
288.61316
292.6197
292.46583
293.90367
294.73709
295.69027
296.55562
297.38466
298.15096
298.84938
299.47213
300.01556
300.47845
300.86234
301.17091
301.40943
301.58426
301.70228
301.77051
301.79581
301.78462
301.74287
301.67589
301.58842
301.48456
301.36791
301.24152
301.108
300.96955
300.82804
300.685
300.54173
300.39929
300.25857
300.12027
299.98499
299.85316
299.72517
299.6013
299.48175
299.36668
299.25619
299.15035
299.04919
298.9527
298.86086
298.77363
298.69094
298.61273
298.53892
298.46941
298.40411
298.34292
298.28575
298.2325
298.18306
298.13734
298.09526
298.05672
298.02163
297.98993
297.96154
297.93638
297.91442
297.8956
297.8799
297.86735
297.85796
297.85174
297.84864
297.84875
297.8526
297.86091
297.87327
297.88708
297.90054
297.9206
297.96221
298.01464
293.67673
290.48332
294.19793
294.49573
295.93394
296.93172
297.9552
298.86708
299.69625
300.42491
301.05128
301.57415
301.99699
302.3258
302.56868
302.73484
302.83394
302.87553
302.86859
302.82137
302.74123
302.63464
302.50715
302.36354
302.20783
302.04338
301.873
301.69903
301.52338
301.34763
301.17305
301.00068
300.83136
300.66575
300.50437
300.34763
300.19583
300.0492
299.90789
299.77201
299.64161
299.51671
299.39728
299.2833
299.17469
299.07138
298.97327
298.88025
298.79222
298.70905
298.63061
298.55679
298.48745
298.42246
298.36171
298.30507
298.25242
298.20365
298.15864
298.1173
298.07953
298.04523
298.01432
297.98673
297.96238
297.94122
297.92322
297.90837
297.89665
297.88803
297.88244
297.88005
297.88139
297.88692
297.89585
297.90578
297.91612
297.93422
297.97216
298.017
294.90159
292.89059
296.25092
297.00145
298.4216
299.55651
300.58085
301.45394
302.19371
302.79581
303.2688
303.62204
303.86832
304.0212
304.09446
304.10118
304.05329
303.96137
303.83455
303.68061
303.50607
303.31634
303.11588
302.90831
302.69661
302.48315
302.26985
302.05827
301.8496
301.64482
301.44468
301.24974
301.06046
300.87714
300.70002
300.52924
300.36489
300.207
300.05558
299.91057
299.7719
299.6395
299.51325
299.39303
299.2787
299.17013
299.06717
298.96967
298.87746
298.79041
298.70834
298.63111
298.55857
298.49056
298.42695
298.36758
298.31234
298.26108
298.21369
298.17005
298.13005
298.09359
298.06058
298.03093
298.00457
297.98142
297.96144
297.94461
297.93087
297.92016
297.91242
297.90787
297.90694
297.90982
297.91552
297.92204
297.92983
297.94622
297.9805
298.0182
296.47248
295.93695
298.80231
300
301.47374
302.52969
303.43858
304.15032
304.69323
305.07851
305.3279
305.4616
305.49989
305.46101
305.36101
305.21352
305.02987
304.81937
304.58956
304.34646
304.09489
303.83866
303.58079
303.32362
303.069
302.81834
302.57274
302.33302
302.0998
301.87353
301.65451
301.44296
301.239
301.04267
300.85398
300.67289
300.4993
300.33312
300.17421
300.02243
299.87763
299.73963
299.60826
299.48334
299.36469
299.25212
299.14545
299.04449
298.94906
298.85898
298.77408
298.69417
298.61909
298.54867
298.48276
298.4212
298.36385
298.31056
298.26121
298.21567
298.17382
298.13556
298.10078
298.06939
298.0413
298.01644
297.99476
297.97621
297.96071
297.94818
297.9386
297.93218
297.92922
297.92967
297.93246
297.93616
297.94187
297.95607
297.98526
298.01559
298.43947
299.63225
302.26378
303.52065
304.74885
305.62732
306.28718
306.72013
306.97532
307.08226
307.07317
306.97415
306.80727
306.59023
306.33709
306.05884
305.764
305.45915
305.14929
304.83827
304.52897
304.22358
303.92373
303.63063
303.34514
303.06789
302.79929
302.53962
302.28902
302.04755
301.81521
301.59191
301.37756
301.17202
300.97511
300.78665
300.60644
300.43429
300.26997
300.11326
299.96395
299.82182
299.68664
299.5582
299.43628
299.32066
299.21114
299.1075
299.00955
298.9171
298.82993
298.74788
298.67075
298.59838
298.53059
298.46723
298.40813
298.35315
298.30216
298.25501
298.2116
298.1718
298.1355
298.1026
298.07302
298.04667
298.02348
298.0034
297.98634
297.97221
297.96104
297.95297
297.94819
297.94647
297.94684
297.9484
297.95255
297.96452
297.9884
298.01202
301.12503
304.03336
305.99897
307.1539
308.06039
308.57169
308.84566
308.91707
308.84445
308.66581
308.41273
308.10833
307.77001
307.41054
307.03929
306.66309
306.28691
305.91433
305.54791
305.18947
304.84027
304.50116
304.17269
303.85519
303.54881
303.25358
302.96944
302.69627
302.4339
302.18211
301.94066
301.70931
301.48779
301.27583
301.07315
300.87948
300.69455
300.51807
300.34979
300.18944
300.03675
299.89148
299.75338
299.62219
299.49769
299.37963
299.2678
299.16198
299.06195
298.9675
298.87843
298.79454
298.71566
298.64159
298.57216
298.50721
298.44657
298.3901
298.33764
298.28906
298.24424
298.20306
298.1654
298.13115
298.10022
298.07253
298.04799
298.02653
298.00806
297.9925
297.97989
297.97031
297.96383
297.96016
297.95862
297.95876
297.96191
297.97162
297.98985
298.00733
304.86296
308.69746
309.92754
310.60839
310.95594
310.98775
310.83545
310.55361
310.19104
309.77818
309.33667
308.88097
308.42099
307.96338
307.51262
307.0717
306.64253
306.22632
305.82377
305.43523
305.0608
304.70043
304.35393
304.02104
303.70144
303.3948
303.10074
302.8189
302.54888
302.29031
302.04283
301.80605
301.57963
301.36321
301.15646
300.95904
300.77063
300.59093
300.41962
300.25643
300.10107
299.95326
299.81274
299.67925
299.55254
299.43237
299.31851
299.21073
299.10882
299.01254
298.92172
298.83613
298.75559
298.67993
298.60894
298.54248
298.48037
298.42246
298.3686
298.31865
298.27249
298.22999
298.19103
298.15551
298.12332
298.09439
298.0686
298.04588
298.02614
298.00932
297.99541
297.98445
297.97638
297.97098
297.96784
297.96689
297.96905
297.97627
297.98927
298.00235
310.43419
312.855
313.29003
313.25077
313.02721
312.61621
312.11955
311.5754
311.01193
310.44506
309.88464
309.3365
308.80407
308.28924
307.79292
307.31543
306.85671
306.41643
305.99413
305.58929
305.20129
304.82955
304.47345
304.13239
303.80579
303.49309
303.19376
302.90727
302.63313
302.37087
302.12005
301.88023
301.65101
301.43199
301.22281
301.0231
300.83252
300.65075
300.47746
300.31235
300.15513
300.00553
299.86325
299.72805
299.59968
299.47787
299.36241
299.25306
299.1496
299.05181
298.95949
298.87244
298.79047
298.7134
298.64103
298.57321
298.50976
298.45054
298.39538
298.34416
298.29675
298.253
298.21283
298.1761
298.14273
298.11262
298.08567
298.06179
298.04089
298.02293
298.00786
297.99565
297.9862
297.97936
297.97498
297.97317
297.97446
297.97952
297.98819
297.99821
314.0415
315.03403
315.18535
314.68136
314.0592
313.38396
312.69623
312.01652
311.35446
310.71524
310.101
309.51243
308.94935
308.41112
307.89685
307.40552
306.9361
306.48755
306.05884
305.64903
305.2572
304.88249
304.52411
304.18129
303.85334
303.53961
303.23946
302.95234
302.67769
302.41501
302.16383
301.92367
301.69413
301.47478
301.26525
301.06517
300.8742
300.69198
300.51821
300.35259
300.19481
300.04459
299.90166
299.76577
299.63665
299.51407
299.39779
299.28759
299.18324
299.08453
298.99127
298.90325
298.82028
298.74218
298.66877
298.59988
298.53535
298.47503
298.41877
298.36642
298.31786
298.27297
298.23163
298.19374
298.1592
298.12792
298.09981
298.07477
298.05274
298.03365
298.01746
298.00412
297.99354
297.98558
297.98016
297.97738
297.97751
297.98088
297.98739
297.99587
310.61379
308.87473
305.61402
302.8024
301.81143
301.82656
301.48574
301.26969
301.09485
300.94391
300.81358
300.68684
300.57375
300.46998
300.36925
300.26889
300.16999
300.07232
299.97555
299.87955
299.78419
299.68941
299.59519
299.50153
299.40844
299.31597
299.22416
299.13307
299.04276
298.95331
298.86479
298.77729
298.69089
298.60568
298.52175
298.43922
298.35816
298.2787
298.20094
298.12499
298.05096
297.97898
297.90916
297.84164
297.77653
297.71396
297.65407
297.59697
297.54281
297.49171
297.44379
297.39918
297.35798
297.32031
297.28627
297.25594
297.22941
297.20674
297.18797
297.17314
297.16234
297.15559
297.15294
297.15444
297.1602
297.17035
297.1851
297.20431
297.22855
297.25662
297.29149
297.32792
297.37797
297.42065
297.49282
297.52886
297.63756
297.65874
297.80898
297.8335
306.79633
304.63825
300.5879
299.36863
299.35712
299.47257
299.63215
299.6842
299.72297
299.75646
299.7793
299.77891
299.76269
299.73357
299.69701
299.65444
299.60649
299.55365
299.49657
299.43584
299.37196
299.30538
299.23649
299.16563
299.09315
299.01932
298.94444
298.86875
298.7925
298.71592
298.63922
298.5626
298.48627
298.4104
298.33518
298.26078
298.18737
298.11511
298.04418
297.97472
297.90689
297.84086
297.77678
297.7148
297.65506
297.59773
297.54295
297.49087
297.44162
297.39536
297.3522
297.31227
297.2757
297.24258
297.21303
297.18712
297.16493
297.14652
297.13192
297.12117
297.11432
297.11142
297.11248
297.11755
297.12675
297.14019
297.15805
297.18023
297.2072
297.23797
297.27506
297.31411
297.36563
297.41092
297.48338
297.52265
297.63073
297.65413
297.80671
297.82772
307.32293
303.20057
300.11894
298.94836
298.97705
299.09231
299.21659
299.23847
299.272
299.27134
299.2722
299.26154
299.24968
299.23174
299.20956
299.18225
299.15059
299.11473
299.075
299.03171
298.98513
298.93553
298.88318
298.82836
298.77134
298.71237
298.65171
298.58962
298.52634
298.46211
298.39715
298.33169
298.26595
298.20015
298.13449
298.06917
298.0044
297.94037
297.87728
297.81532
297.75466
297.69551
297.63803
297.58241
297.52883
297.47744
297.42843
297.38196
297.33817
297.29723
297.25926
297.22442
297.19281
297.16456
297.13975
297.11848
297.10082
297.08683
297.07652
297.06992
297.0671
297.06807
297.07287
297.08152
297.09413
297.11082
297.13174
297.15683
297.18648
297.21982
297.25917
297.3006
297.35379
297.40116
297.47458
297.51617
297.62476
297.64951
297.80424
297.823
306.23811
301.07637
299.10928
298.21842
298.46503
298.52329
298.64852
298.65867
298.70678
298.71988
298.74144
298.74569
298.74741
298.7409
298.73045
298.71522
298.69605
298.67296
298.64628
298.61626
298.58314
298.54714
298.50846
298.46731
298.42388
298.37839
298.33102
298.28197
298.23145
298.17965
298.12678
298.07303
298.01862
297.96376
297.90863
297.85346
297.79845
297.74381
297.68974
297.63645
297.58415
297.53303
297.48331
297.43516
297.3888
297.3444
297.30215
297.26224
297.22482
297.19006
297.15812
297.12913
297.10322
297.0805
297.06109
297.04506
297.03249
297.02342
297.01787
297.01587
297.01747
297.0227
297.03154
297.04407
297.06036
297.08052
297.10472
297.13288
297.16536
297.2014
297.24313
297.28699
297.34198
297.39138
297.46591
297.50971
297.6188
297.64494
297.80181
297.81846
305.21265
299.96771
298.53735
297.80648
298.15801
298.14309
298.2753
298.25769
298.30518
298.30217
298.31701
298.31354
298.31312
298.30619
298.29778
298.28599
298.27175
298.25486
298.23553
298.21383
298.18985
298.16365
298.13533
298.10496
298.07265
298.03849
298.0026
297.9651
297.92612
297.88581
297.84432
297.8018
297.75843
297.71438
297.66983
297.62498
297.58001
297.53513
297.49054
297.44644
297.40304
297.36056
297.31919
297.27915
297.24064
297.20385
297.16898
297.13622
297.10576
297.07775
297.05236
297.02973
297.00999
296.99327
296.97966
296.96925
296.96213
296.95831
296.95782
296.96068
296.96694
296.97661
296.9897
297.00624
297.02633
297.05008
297.07763
297.10893
297.14431
297.18306
297.22722
297.27349
297.33036
297.38166
297.45751
297.50323
297.61315
297.64045
297.79944
297.81433
304.69751
298.88343
297.8991
297.25738
297.70574
297.62681
297.78693
297.75604
297.81913
297.81695
297.84211
297.84432
297.85185
297.85185
297.85099
297.84686
297.84063
297.83204
297.82132
297.80853
297.79375
297.77704
297.75848
297.73813
297.71604
297.69231
297.66699
297.64018
297.61198
297.58247
297.55178
297.52003
297.48735
297.45388
297.41979
297.38523
297.35038
297.31542
297.28055
297.24596
297.21184
297.17841
297.14587
297.11442
297.08427
297.05562
297.02867
297.00362
296.98064
296.95991
296.94158
296.92581
296.91272
296.90244
296.89507
296.8907
296.8894
296.89118
296.89607
296.90408
296.91526
296.92961
296.94713
296.96788
296.99193
297.01939
297.05041
297.08493
297.12327
297.16479
297.21144
297.26012
297.31891
297.3721
297.44932
297.49687
297.60765
297.63611
297.79714
297.81044
304.21979
297.72574
297.31234
296.71785
297.24827
297.12137
297.31412
297.27158
297.35125
297.34879
297.38243
297.3888
297.4031
297.40928
297.41523
297.41795
297.41882
297.4176
297.4145
297.4096
297.40298
297.39471
297.38484
297.37343
297.36053
297.34619
297.33045
297.31338
297.29504
297.27551
297.25486
297.23319
297.21062
297.18724
297.16321
297.13864
297.11371
297.08856
297.06337
297.03832
297.01359
296.98938
296.96589
296.9433
296.92183
296.90166
296.883
296.86603
296.85093
296.83787
296.827
296.81847
296.81241
296.80894
296.80816
296.81015
296.81497
296.82264
296.83317
296.84656
296.86286
296.88208