/*--------------------------------*- C++ -*----------------------------------*\
| =========                 |                                                 |
| \\      /  F ield         | OpenFOAM: The Open Source CFD Toolbox           |
|  \\    /   O peration     | Version:  2512                                  |
|   \\  /    A nd           | Website:  www.openfoam.com                      |
|    \\/     M anipulation  |                                                 |
\*---------------------------------------------------------------------------*/
FoamFile
{
    version     2.0;
    format      ascii;
    arch        "LSB;label=32;scalar=64";
    class       volVectorField;
    location    "0.144";
    object      U;
}
// * * * * * * * * * * * * * * * * * * * * * * * * * * * * * * * * * * * * * //

dimensions      [0 1 -1 0 0 0 0];

internalField   nonuniform List<vector> 
16000
(
(214.82676 -3.119404e-17 -8.342202)
(251.97748 0 5.3517501)
(238.31651 0 -7.544155)
(246.08791 4.9553254e-17 3.7643237)
(241.48735 -4.9005089e-17 -5.9344806)
(243.74642 0 1.7363216)
(241.992 0 -4.3177378)
(242.53211 8.3846893e-17 -0.041009239)
(241.72202 -7.9688514e-17 -3.160488)
(241.62408 0 -1.277733)
(241.13027 7.2007884e-17 -2.5724758)
(240.80093 -2.051498e-16 -1.9946793)
(240.37297 1.2985418e-16 -2.4338982)
(239.95821 -1.2352379e-16 -2.3720783)
(239.5138 1.1720275e-16 -2.5342153)
(239.05422 -3.4768052e-18 -2.6070722)
(238.57485 -3.3028771e-18 -2.7115582)
(238.07673 -9.7461976e-17 -2.8053178)
(237.55942 1.9095053e-16 -2.9008948)
(237.02286 -9.0599142e-17 -2.9943077)
(236.46697 1.7233345e-16 -3.0859444)
(235.89173 -1.6335762e-16 -3.1751066)
(235.29719 0 -3.2612931)
(234.68349 1.5206147e-16 -3.3439184)
(234.05084 -4.114747e-18 -3.4223868)
(233.39957 -2.6539379e-16 -3.4960691)
(232.73012 1.2578683e-16 -3.564328)
(232.04304 0 -3.6265114)
(231.33901 0 -3.681969)
(230.61883 2.1845072e-16 -3.7300571)
(229.88345 -2.0353541e-16 -3.7701519)
(229.13397 0 -3.8016582)
(228.37159 0 -3.8240207)
(227.59767 0 -3.8367383)
(226.81371 5.1351105e-18 -3.839374)
(226.0213 1.5583568e-16 -3.8315675)
(225.22217 -1.4265256e-16 -3.813047)
(224.41814 -1.3971915e-16 -3.7836374)
(223.61109 1.23711e-16 -3.7432708)
(222.803 0 -3.6919938)
(221.99586 -1.1840435e-16 -3.62997)
(221.19169 1.117594e-16 -3.5574844)
(220.39248 -2.1180797e-16 -3.474941)
(219.60023 1.9983384e-16 -3.3828601)
(218.81684 -1.9517033e-16 -3.2818715)
(218.04415 3.5732545e-16 -3.1727036)
(217.28391 5.6001772e-18 -3.0561728)
(216.5377 2.985048e-19 -2.933168)
(215.80702 -1.5040464e-16 -2.8046341)
(215.09317 1.4225158e-16 -2.6715548)
(214.39731 -1.2565172e-16 -2.5349342)
(213.72042 0 -2.395778)
(213.06328 7.468301e-18 -2.2550775)
(212.42654 0 -2.1137914)
(211.81062 6.6459537e-18 -1.972831)
(211.21578 2.069409e-16 -1.8330482)
(210.64208 -3.7823978e-16 -1.6952224)
(210.08942 1.0921334e-17 -1.5600503)
(209.55751 1.6808054e-16 -1.4281348)
(209.04584 -1.4877727e-16 -1.2999917)
(208.5537 1.4014024e-16 -1.1760251)
(208.08027 -8.8185133e-18 -1.0565738)
(207.6246 0 -0.94187736)
(207.1855 0 -0.83207836)
(206.76153 -1.1113323e-16 -0.727251)
(206.35087 1.1181323e-16 -0.62740217)
(205.9514 -9.9079134e-17 -0.53248764)
(205.56082 1.9340077e-16 -0.44242017)
(205.17683 -1.8874665e-16 -0.35707593)
(204.79732 8.3676154e-17 -0.27630394)
(204.42011 5.2840663e-18 -0.19993648)
(204.04247 0 -0.12781799)
(203.661 4.7509827e-18 -0.059833715)
(203.27237 -4.5129588e-18 0.004237791)
(202.87503 0 0.064860339)
(202.46974 -3.3750688e-17 0.11989165)
(202.03849 6.2470485e-17 0.16966699)
(201.68432 -3.1744847e-17 0.25833352)
(201.02417 0 0.12814222)
(200.98176 0 0.65429831)
(216.11936 0 -11.153923)
(253.59481 -3.7085917e-18 3.3101018)
(239.29888 -1.1964244e-16 -10.469042)
(247.52766 1.10097e-16 1.6773484)
(242.57628 0 -8.796965)
(245.06526 1.0139497e-16 -0.42268812)
(243.10837 -1.8740395e-16 -7.0633456)
(243.73567 -1.021906e-19 -2.3233322)
(242.83531 8.4454439e-17 -5.7514222)
(242.73782 0 -3.6775137)
(242.2033 -1.5255983e-16 -5.0496009)
(241.84489 1.4923152e-16 -4.4396205)
(241.3848 1.4194145e-16 -4.8654589)
(240.9355 -2.6129917e-16 -4.8046052)
(240.45638 1.2012337e-16 -4.9469435)
(239.96019 1.1043836e-17 -5.0127778)
(239.4432 1.1548503e-16 -5.102018)
(238.90614 -1.0285315e-16 -5.1823988)
(238.34874 0 -5.2622784)
(237.77096 0 -5.3389532)
(237.17282 5.6758431e-18 -5.4123015)
(236.55438 -1.7805323e-16 -5.4816127)
(235.91581 3.3762232e-16 -5.5462498)
(235.25738 -3.1548328e-16 -5.6055259)
(234.57946 1.4259491e-16 -5.6587385)
(233.88252 0 -5.7051697)
(233.1672 1.2436955e-16 -5.7440911)
(232.43422 -1.3336069e-16 -5.7747791)
(231.68448 0 -5.796521)
(230.91902 3.5246001e-18 -5.8086276)
(230.139 -1.3368189e-17 -5.8104437)
(229.34577 0 -5.8013641)
(228.54078 0 -5.7808417)
(227.72565 -1.7057774e-16 -5.748408)
(226.90212 3.3870825e-16 -5.7036819)
(226.07203 -1.6264397e-16 -5.646384)
(225.23734 -1.5905131e-16 -5.5763504)
(224.40008 1.4557184e-16 -5.4935394)
(223.56235 -1.1212464e-16 -5.398043)
(222.72627 -2.8736219e-19 -5.290091)
(221.89396 -2.6880089e-19 -5.1700538)
(221.06755 2.3273073e-16 -5.0384417)
(220.2491 -1.0980544e-16 -4.8959005)
(219.44061 0 -4.7432035)
(218.64395 2.0232889e-16 -4.5812414)
(217.86092 1.1936453e-17 -4.4110073)
(217.09312 -5.1150198e-18 -4.2335793)
(216.34205 -1.6450246e-16 -4.0501025)
(215.60898 0 -3.8617677)
(214.89505 -1.4652843e-16 -3.6697904)
(214.20117 -8.8579849e-18 -3.4753901)
(213.5281 2.600683e-16 -3.2797684)
(212.87639 -1.300669e-16 -3.084091)
(212.24641 0 -2.8894695)
(211.63836 -2.0379962e-17 -2.6969448)
(211.05224 -2.1117973e-16 -2.5074764)
(210.48792 3.6122685e-16 -2.3219293)
(209.94507 -2.1524802e-16 -2.1410651)
(209.4232 0 -1.9655337)
(208.92166 -1.7077858e-16 -1.7958795)
(208.43959 1.7946341e-16 -1.6325186)
(207.97602 2.668324e-17 -1.4757776)
(207.52992 0 -1.3258856)
(207.10002 -1.4187578e-16 -1.1829548)
(206.68485 7.3203613e-18 -1.0470211)
(206.2826 1.1169789e-16 -0.91804691)
(205.89112 -1.973492e-17 -0.79593699)
(205.50806 9.2992309e-17 -0.68054738)
(205.13104 -1.051145e-16 -0.57168994)
(204.75786 5.5081061e-18 -0.46914334)
(204.38635 -5.1972919e-18 -0.37266807)
(204.01387 0 -0.28204323)
(203.63698 -4.6374153e-18 -0.19709118)
(203.25222 4.3863691e-18 -0.11751872)
(202.85737 8.3076504e-18 -0.043308824)
(202.45104 9.8440199e-19 0.023937204)
(202.03718 0 0.0921106)
(201.62827 3.0226285e-17 0.16130086)
(201.09552 -5.756979e-17 0.10101329)
(200.87731 2.5857827e-17 0.54989968)
(217.27329 0 -14.038045)
(255.05675 -1.2198173e-16 1.0674826)
(240.2409 2.49673e-16 -13.477625)
(248.76079 -2.2256809e-16 -0.57455623)
(243.5551 1.1013236e-16 -11.731839)
(246.17946 -3.2579824e-18 -2.7713988)
(244.09547 9.9249876e-17 -9.8561075)
(244.74792 -9.3965184e-17 -4.8012974)
(243.79062 -5.5801658e-18 -8.4076946)
(243.66973 -5.2978859e-18 -6.2425205)
(243.09957 -1.0065376e-17 -7.6265458)
(242.70488 1.3886521e-16 -7.0220675)
(242.20902 -1.4076585e-16 -7.4172679)
(241.72089 1.3815748e-16 -7.3635871)
(241.20235 -1.1868727e-16 -7.4849092)
(240.66507 -1.555607e-17 -7.5429493)
(240.10572 0 -7.6168274)
(239.52504 -1.1922454e-20 -7.6825823)
(238.92283 -2.2626693e-16 -7.7455847)
(238.29917 -3.6796118e-19 -7.8038072)
(237.65418 1.7342827e-16 -7.8568168)
(236.98805 1.7035828e-17 -7.9038226)
(236.30111 -2.1547876e-17 -7.9440704)
(235.59376 0 -7.9767709)
(234.86658 6.6674306e-21 -8.0011258)
(234.12023 -1.6541379e-16 -8.0163299)
(233.35554 1.4777662e-16 -8.0215824)
(232.57351 8.2475861e-18 -8.016095)
(231.77528 0 -7.9991102)
(230.96215 -7.3991652e-18 -7.9699088)
(230.13557 -2.2565957e-21 -7.9278305)
(229.29719 -1.9918036e-16 -7.8722864)
(228.44876 2.0059749e-16 -7.8027752)
(227.59219 1.1887978e-17 -7.7189031)
(226.72952 -1.7994899e-16 -7.6203931)
(225.86287 1.4850972e-16 -7.5071034)
(224.99447 -1.8096309e-16 -7.3790375)
(224.12657 1.5167715e-16 -7.236354)
(223.26146 -1.4361569e-16 -7.0793705)
(222.40144 1.3535098e-16 -6.9085694)
(221.54874 1.6004631e-17 -6.7245947)
(220.70555 0 -6.5282451)
(219.87395 1.9963917e-16 -6.3204665)
(219.0559 -2.4164366e-16 -6.1023368)
(218.2532 0 -5.8750495)
(217.4675 1.7934967e-16 -5.6398946)
(216.70024 -1.5738243e-16 -5.3982338)
(215.95268 1.6981118e-16 -5.1514789)
(215.22586 -1.7961499e-16 -4.9010659)
(214.52064 0 -4.6484315)
(213.83764 1.7711781e-16 -4.3949899)
(213.17731 -1.3311017e-16 -4.1421093)
(212.53989 0 -3.8910936)
(211.92545 0 -3.6431652)
(211.33388 1.247223e-16 -3.3994489)
(210.76493 -2.0829489e-16 -3.1609633)
(210.21817 1.2227364e-16 -2.9286093)
(209.69306 1.8401867e-16 -2.7031654)
(209.18887 1.9874051e-19 -2.4852801)
(208.70479 1.768071e-19 -2.2754796)
(208.23977 -3.2390792e-16 -2.0741551)
(207.79273 8.9391657e-17 -1.881583)
(207.36249 0 -1.6979488)
(206.94774 1.4207682e-16 -1.5233097)
(206.54695 -1.629765e-16 -1.3576391)
(206.15831 1.1139496e-16 -1.2008352)
(205.77968 1.3148103e-17 -1.0527354)
(205.40867 -8.5956622e-17 -0.91312767)
(205.04288 1.1542997e-17 -0.78175719)
(204.68005 2.1707947e-17 -0.65833676)
(204.31802 -1.0208495e-16 -0.54255427)
(203.95427 9.6010887e-17 -0.43410774)
(203.58542 -7.2340647e-17 -0.33276792)
(203.20781 1.362675e-16 -0.2383128)
(202.81883 -5.6192008e-17 -0.15083749)
(202.41848 -6.0628374e-17 -0.070399494)
(202.01128 5.0093005e-17 0.0092775316)
(201.58411 0 0.071836391)
(201.10775 3.2057411e-18 0.070945038)
(200.81461 -1.2157751e-17 0.44036606)
(218.2629 0 -16.991371)
(256.36379 0 -1.3069429)
(240.96967 0 -16.617293)
(249.79577 1.0636064e-16 -2.9341826)
(244.34441 -1.2373762e-16 -14.797671)
(247.12225 -2.201666e-16 -5.2394353)
(244.89678 2.0957362e-16 -12.768141)
(245.577 -1.2408959e-17 -7.4075083)
(244.55529 5.9104859e-18 -11.175261)
(244.40708 -1.7379789e-16 -8.9397203)
(243.79685 1.7016513e-16 -10.315336)
(243.3605 1.0112818e-17 -9.7303777)
(242.82417 -1.5357481e-16 -10.086724)
(242.29211 1.3642672e-16 -10.04168)
(241.72926 -1.3173863e-20 -10.140501)
(241.146 -8.1830754e-18 -10.18861)
(240.53958 0 -10.24534)
(239.91066 -7.3863289e-18 -10.293864)
(239.25918 -2.1026514e-16 -10.337216)
(238.58533 2.1230976e-16 -10.373828)
(237.88934 1.2602182e-17 -10.403043)
(237.17157 -1.1948008e-17 -10.423986)
(236.4325 2.1531255e-16 -10.435799)
(235.67273 -1.7150602e-16 -10.437596)
(234.89305 1.0170529e-17 -10.428482)
(234.09437 1.928562e-16 -10.407571)
(233.27781 -1.2757245e-16 -10.373985)
(232.44463 0 -10.326886)
(231.59631 1.4741201e-16 -10.265481)
(230.73448 -1.2373257e-16 -10.189046)
(229.86094 2.4937064e-16 -10.096941)
(228.97768 -1.3316236e-17 -9.9886344)
(228.08682 -2.094641e-16 -9.8637171)
(227.1906 1.7373713e-16 -9.7219223)
(226.29138 -1.871554e-16 -9.5631388)
(225.39158 -3.1603385e-20 -9.387428)
(224.49369 2.0922788e-16 -9.1950309)
(223.60019 -3.1575833e-16 -8.9863742)
(222.71354 9.2931771e-17 -8.7620732)
(221.83615 3.5186628e-17 -8.5229273)
(220.97031 -4.9754123e-17 -8.2699148)
(220.11821 0 -8.0041767)
(219.28187 -8.853265e-17 -7.7270031)
(218.46311 1.3865564e-16 -7.4398096)
(217.66358 -2.093626e-16 -7.1441149)
(216.88468 1.9671634e-16 -6.8415163)
(216.12759 -2.0865054e-16 -6.5336578)
(215.39325 3.9233694e-16 -6.2222054)
(214.68239 -3.0746636e-16 -5.9088185)
(213.99549 3.0832163e-16 -5.5951235)
(213.33283 -1.4471489e-16 -5.2826896)
(212.69447 1.3622567e-16 -4.9730078)
(212.08031 -9.5763801e-17 -4.6674709)
(211.49006 3.002986e-17 -4.3673611)
(210.9233 0 -4.073835)
(210.37946 0 -3.7879184)
(209.85785 0 -3.5104992)
(209.35765 2.3245335e-17 -3.2423247)
(208.87796 0 -2.983999)
(208.41774 -1.636109e-16 -2.7359912)
(207.97582 1.9153334e-16 -2.4986315)
(207.55098 -1.0780691e-16 -2.2721203)
(207.14193 -1.1696756e-19 -2.0565688)
(206.74731 2.5222456e-16 -1.8519613)
(206.36557 2.9623663e-17 -1.6581923)
(205.99489 -1.3834046e-16 -1.4750838)
(205.63318 5.1879451e-17 -1.3023972)
(205.27804 -1.4574835e-16 -1.1398469)
(204.92702 -4.5542216e-17 -0.98710988)
(204.57784 -6.4019563e-17 -0.84383358)
(204.22838 -6.0034999e-17 -0.70962879)
(203.87623 5.626064e-17 -0.5841161)
(203.5181 0 -0.46706249)
(203.15011 0 -0.35831483)
(202.76968 -1.5508158e-17 -0.25766391)
(202.37784 0 -0.16437288)
(201.97581 6.8508611e-18 -0.076286217)
(201.54822 5.1590034e-17 -0.0099345448)
(201.10798 -7.2872657e-17 0.031650036)
(200.7583 -1.3631501e-20 0.32801159)
(219.06728 0 -20.141729)
(257.49474 -8.7768331e-18 -3.7536397)
(241.56727 2.6640829e-16 -19.889529)
(250.6377 -2.4838477e-16 -5.419315)
(244.89596 2.5396598e-16 -17.976954)
(247.85736 -2.3212707e-16 -7.8601198)
(245.49358 -2.2146081e-16 -15.785032)
(246.1912 2.0956942e-16 -10.170928)
(245.10679 0 -14.045204)
(244.92166 0 -11.786001)
(244.26949 1.7967036e-16 -13.117515)
(243.78504 -1.7021468e-16 -12.570379)
(243.20382 -1.0112086e-17 -12.877983)
(242.62293 2.8763882e-17 -12.840729)
(242.01111 -9.1024734e-18 -12.9149)
(241.37727 3.4525076e-17 -12.949319)
(240.71917 0 -12.985998)
(240.03745 0 -13.013636)
(239.33215 -2.3579205e-16 -13.033651)
(238.60357 2.0911343e-16 -13.044693)
(237.85211 0 -13.045912)
(237.07832 0 -13.036314)
(236.2829 -1.9026987e-16 -13.0149)
(235.46672 3.6008319e-16 -12.980664)
(234.63086 -1.703065e-16 -12.932596)
(233.77657 -2.0175748e-17 -12.869713)
(232.90531 -3.821419e-17 -12.791074)
(232.01876 -1.448e-16 -12.695798)
(231.11877 1.1955328e-16 -12.583089)
(230.2074 0 -12.452254)
(229.28687 -3.0621523e-17 -12.30273)
(228.35959 0 -12.134105)
(227.42806 0 -11.946131)
(226.49492 2.0671264e-16 -11.738753)
(225.56286 -2.1909774e-16 -11.51211)
(224.63461 2.2982751e-17 -11.266557)
(223.71288 -2.1685704e-17 -11.002662)
(222.80034 -4.1001545e-17 -10.721211)
(221.89957 -8.8580418e-20 -10.423199)
(221.01301 8.4059029e-20 -10.109818)
(220.14293 -7.9254788e-20 -9.7824465)
(219.29142 0 -9.4426206)
(218.46031 -1.2171553e-16 -9.0920149)
(217.65121 1.1429647e-16 -8.7324079)
(216.86545 0 -8.3656536)
(216.10411 -5.0662291e-17 -7.9936527)
(215.36798 1.9041066e-16 -7.6183133)
(214.65761 -2.2321575e-16 -7.241526)
(213.97328 -2.1000903e-16 -6.8651316)
(213.31506 1.5745273e-16 -6.4908966)
(212.68278 1.1105123e-16 -6.1204889)
(212.07611 -1.3861848e-16 -5.7554606)
(211.49453 -3.2498883e-17 -5.3972303)
(210.93738 -2.1350593e-16 -5.0470757)
(210.4039 1.1419196e-16 -4.706122)
(209.89321 -1.0710184e-16 -4.3753418)
(209.40432 1.0017861e-16 -4.0555533)
(208.9362 2.3472456e-16 -3.74742)
(208.48773 -1.7555548e-16 -3.4514539)
(208.0577 0 -3.1680259)
(207.6448 -3.8418009e-17 -2.8973656)
(207.24771 -7.1914227e-17 -2.639571)
(206.86506 1.3437773e-16 -2.3946503)
(206.49543 1.2572544e-16 -2.1624947)
(206.13726 -2.3495347e-16 -1.9429043)
(205.78879 8.2288189e-17 -1.7356122)
(205.44795 5.129677e-17 -1.5402948)
(205.11239 9.5902204e-17 -1.3565882)
(204.77964 1.3444966e-16 -1.1841016)
(204.44741 2.4358079e-20 -1.0224163)
(204.11361 0 -0.87106263)
(203.77599 0 -0.72960201)
(203.43134 -3.421919e-17 -0.59783074)
(203.07571 9.6011407e-17 -0.47554415)
(202.7068 -8.9799227e-17 -0.36208014)
(202.32562 -8.4062726e-17 -0.25705178)
(201.93046 5.2457846e-17 -0.16146127)
(201.51114 0 -0.085731507)
(201.0934 4.6077878e-17 -0.017424103)
(200.70776 2.4103687e-20 0.21735232)
(219.67154 0 -23.461992)
(258.42726 1.8287844e-20 -6.2776045)
(241.96758 9.0648002e-18 -23.259164)
(251.30728 2.8766459e-16 -8.0401215)
(245.28697 3.3347331e-19 -21.256248)
(248.36047 -5.050986e-16 -10.62766)
(245.84512 -3.2410127e-19 -18.89433)
(246.56635 4.5578152e-16 -13.093829)
(245.41555 -2.0977028e-16 -17.013551)
(245.18983 -1.2442566e-17 -14.779162)
(244.49485 1.1817956e-17 -16.030367)
(243.95736 -1.7945877e-16 -15.5337)
(243.32758 1.9119859e-16 -15.784632)
(242.69359 -1.8167418e-16 -15.75136)
(242.02829 3.0604077e-16 -15.798853)
(241.33907 -3.0835135e-16 -15.815429)
(240.62427 1.3743058e-16 -15.828981)
(239.88449 0 -15.832043)
(239.12 0 -15.824872)
(238.33129 1.4639243e-17 -15.806113)
(237.51902 -2.7759996e-17 -15.774685)
(236.68403 0 -15.72942)
(235.82737 1.9934119e-16 -15.669154)
(234.95029 4.7447032e-19 -15.592746)
(234.05426 -3.5675298e-16 -15.499078)
(233.14099 1.6856657e-16 -15.387093)
(232.21241 1.9944151e-17 -15.255818)
(231.27068 0 -15.104382)
(230.31815 -1.786745e-16 -14.932044)
(229.35739 1.3472811e-16 -14.738225)
(228.39109 -2.2342389e-16 -14.52252)
(227.42213 2.1029053e-16 -14.284734)
(226.45346 -2.2759968e-16 -14.024889)
(225.48808 2.1423215e-16 -13.743247)
(224.52902 7.5946977e-17 -13.440314)
(223.57925 0 -13.116846)
(222.64168 0 -12.773849)
(221.71906 4.2327161e-17 -12.412561)
(220.81399 3.9867137e-17 -12.034446)
(219.92882 -3.7534585e-17 -11.641163)
(219.06568 3.5323696e-17 -11.234545)
(218.22638 6.6650163e-17 -10.816562)
(217.41247 -6.2596459e-17 -10.389294)
(216.62516 3.5294189e-16 -9.9548841)
(215.86536 -2.7608774e-16 -9.5155076)
(215.13367 5.1818019e-17 -9.0733351)
(214.43041 -4.8761648e-17 -8.6304947)
(213.7556 0 -8.1890436)
(213.10903 2.1431766e-16 -7.7509379)
(212.49025 -1.6053043e-16 -7.3180115)
(211.89864 0 -6.8919544)
(211.3334 0 -6.4743024)
(210.79359 1.3209537e-16 -6.0664238)
(210.27819 -6.1743339e-17 -5.6695172)
(209.78608 0 -5.2846083)
(209.31609 -1.6223052e-16 -4.9125523)
(208.86699 1.0098601e-16 -4.5540391)
(208.43751 1.4174948e-16 -4.2095974)
(208.02635 -1.7632634e-16 -3.8796019)
(207.63218 1.6481541e-16 -3.564287)
(207.2536 -1.537399e-16 -3.2637488)
(206.88916 6.7302226e-20 -2.9779565)
(206.53748 0 -2.7067945)
(206.19711 6.2492705e-17 -2.4500435)
(205.86651 -2.9137255e-16 -2.2073977)
(205.54396 1.6295909e-16 -1.9784928)
(205.22748 0 -1.7629152)
(204.91477 -1.4169186e-16 -1.5602214)
(204.6034 8.8018219e-17 -1.3699537)
(204.29105 1.2313699e-16 -1.1916242)
(203.9757 3.4201475e-20 -1.0246862)
(203.65524 -7.1270795e-17 -0.86867265)
(203.32657 9.9677028e-17 -0.72340658)
(202.98587 -1.5484705e-16 -0.58848521)
(202.63107 8.6609239e-17 -0.46288766)
(202.26236 2.6906415e-17 -0.34736293)
(201.87656 5.0222943e-17 -0.24441313)
(201.47062 0 -0.15467505)
(201.07129 -4.3746851e-17 -0.065859598)
(200.65876 2.0376456e-17 0.10963497)
(220.06545 0 -26.948772)
(259.15636 9.7661131e-18 -8.9090433)
(242.17155 -3.056072e-16 -26.755036)
(251.79413 2.4907605e-16 -10.801749)
(245.48844 2.5634065e-16 -24.635408)
(248.62122 -4.9952442e-16 -13.548582)
(246.00459 2.2994754e-16 -22.086306)
(246.69356 2.3273306e-16 -16.176911)
(245.4983 -2.2062821e-16 -20.065085)
(245.20457 3.9270126e-17 -17.905532)
(244.46456 0 -19.041948)
(243.86805 0 -18.605615)
(243.18416 -2.2337072e-17 -18.796848)
(242.49063 -1.6959643e-16 -18.763938)
(241.76495 1.4035492e-16 -18.784479)
(241.01316 1.9041075e-17 -18.780015)
(240.23425 -3.6094827e-17 -18.76769)
(239.429 3.0795215e-16 -18.74243)
(238.59798 -2.2629885e-16 -18.703688)
(237.74203 2.4563139e-16 -18.649995)
(236.86218 -2.0298079e-16 -18.580058)
(235.95969 2.752235e-17 -18.492547)
(235.03608 1.5635747e-16 -18.386162)
(234.0931 -1.9665502e-16 -18.259662)
(233.13276 0 -18.11187)
(232.15732 0 -17.941717)
(231.16931 0 -17.748271)
(230.17147 -1.9697182e-16 -17.530759)
(229.16674 1.8554237e-16 -17.288601)
(228.15824 -3.515999e-17 -17.021436)
(227.14923 0 -16.729152)
(226.14305 -2.8185142e-16 -16.411901)
(225.14308 2.3556118e-16 -16.070113)
(224.15267 -5.5720558e-17 -15.704503)
(223.17511 1.5757572e-16 -15.316084)
(222.21354 -4.8964429e-17 -14.906137)
(221.27091 -1.8573299e-16 -14.476216)
(220.34995 2.1911488e-16 -14.028116)
(219.45308 -1.6449662e-16 -13.563842)
(218.58243 7.7598079e-17 -13.08558)
(217.73977 -7.2808658e-17 -12.595653)
(216.9265 1.3687726e-16 -12.096476)
(216.14366 -6.4133719e-17 -11.590522)
(215.39194 -2.4139305e-16 -11.080268)
(214.67166 5.0901469e-16 -10.568159)
(213.98283 -2.1200238e-16 -10.056569)
(213.32515 -1.4940053e-16 -9.5477668)
(212.69806 9.2885683e-17 -9.0438882)
(212.10078 8.7380307e-17 -8.546912)
(211.53232 -1.6346395e-16 -8.0586431)
(210.99155 1.5273115e-16 -7.5807009)
(210.47723 0 -7.1145131)
(209.988 1.3368635e-16 -6.6613126)
(209.52249 -1.8725595e-16 -6.2221409)
(209.07927 5.8356161e-17 -5.7978524)
(208.6569 5.4385067e-17 -5.3891228)
(208.25395 0 -4.9964591)
(207.86897 0 -4.6202082)
(207.50053 0 -4.2605682)
(207.1472 0 -3.9176046)
(206.80751 0 -3.5912536)
(206.47999 -7.1459942e-17 -3.2813363)
(206.16323 0 -2.9875978)
(205.85579 -5.4676175e-20 -2.7096969)
(205.55617 2.3076181e-16 -2.447215)
(205.26276 -2.146724e-16 -2.1996856)
(204.97365 -9.9933173e-17 -1.9666036)
(204.68665 -1.8581328e-16 -1.7474485)
(204.39938 2.5901333e-16 -1.5416958)
(204.10953 4.4605799e-20 -1.3487871)
(203.81514 7.4603272e-17 -1.1681124)
(203.51421 0 -0.99920624)
(203.20381 0 -0.84187354)
(202.88047 0 -0.69539151)
(202.54215 -1.1136044e-16 -0.55865713)
(202.18771 0 -0.43399418)
(201.81376 -9.6217311e-17 -0.32357527)
(201.42488 1.3414555e-16 -0.2182614)
(201.04229 8.3159331e-17 -0.11635012)
(200.60966 -1.9274883e-17 0.006107933)
(220.25264 0 -30.611437)
(259.68824 0 -11.648771)
(242.18355 3.2152163e-16 -30.382743)
(252.10074 1.9255509e-17 -13.720821)
(245.50036 -2.6907431e-16 -28.12519)
(248.72821 0 -16.644517)
(245.94729 1.6119863e-17 -25.35355)
(246.69646 -3.054879e-17 -19.41087)
(245.31801 0 -23.180996)
(244.96411 1.9260892e-16 -21.152115)
(244.17183 -4.1702611e-16 -22.152333)
(243.50514 1.9747301e-16 -21.784323)
(242.75686 2.3440521e-17 -21.917797)
(241.99352 0 -21.880653)
(241.19724 2.1032512e-17 -21.873232)
(240.37292 -3.3929042e-16 -21.843201)
(239.52023 7.4795435e-17 -21.800298)
(238.64019 2.5004815e-16 -21.740876)
(237.7338 2.3747455e-16 -21.663886)
(236.80233 -2.5614406e-16 -21.567739)
(235.84732 0 -21.450966)
(234.87058 -2.8741606e-16 -21.312117)
(233.87422 2.4403016e-16 -21.149797)
(232.86063 -2.0569435e-16 -20.962723)
(231.8325 1.9386762e-16 -20.74974)
(230.79279 -1.8373333e-16 -20.509852)
(229.7447 3.466035e-16 -20.242284)
(228.69167 -1.6356639e-16 -19.946486)
(227.63729 1.5469457e-16 -19.622185)
(226.58531 -2.9165061e-16 -19.2694)
(225.53951 1.372663e-16 -18.888473)
(224.5037 1.2964134e-16 -18.480077)
(223.48161 -2.4460505e-16 -18.045214)
(222.47686 5.6780594e-17 -17.585221)
(221.49283 -5.7729106e-19 -17.101755)
(220.53268 2.5448554e-16 -16.596756)
(219.59923 0 -16.072434)
(218.69494 1.9788147e-19 -15.531217)
(217.82187 0 -14.97571)
(216.98167 -7.9438347e-17 -14.408643)
(216.17553 -1.4929384e-16 -13.832826)
(215.40423 7.0101944e-17 -13.251088)
(214.66813 0 -12.666234)
(213.96719 -6.1776094e-17 -12.080997)
(213.30103 2.8914195e-16 -11.497994)
(212.66894 -3.2462253e-16 -10.919693)
(212.06993 -3.0417079e-16 -10.34839)
(211.5028 2.8400191e-16 -9.7861775)
(210.96617 -1.7723921e-16 -9.2349401)
(210.4585 0 -8.6963412)
(209.9782 0 -8.171823)
(209.52357 7.2341865e-17 -7.662608)
(209.09292 6.7513112e-17 -7.1697074)
(208.68455 1.2582175e-16 -6.6939294)
(208.29679 -5.8673811e-17 -6.2358915)
(207.928 -1.0929684e-16 -5.7960346)
(207.57658 -2.0381963e-16 -5.3746367)
(207.24099 -9.5087789e-17 -4.9718264)
(206.91971 1.7654238e-16 -4.5875952)
(206.61127 0 -4.2218178)
(206.31418 -7.6469871e-17 -3.874253)
(206.027 -1.4214376e-16 -3.5445621)
(205.74831 1.320689e-16 -3.2323452)
(205.47673 6.1258226e-17 -2.937133)
(205.21085 5.6976062e-17 -2.6583938)
(204.94912 0 -2.3955592)
(204.68982 1.9643176e-16 -2.1480365)
(204.43086 1.8227579e-16 -1.9152317)
(204.16993 -2.5364746e-16 -1.6965546)
(203.90478 7.8447871e-17 -1.4913784)
(203.63347 -7.2717287e-17 -1.2990533)
(203.35409 -4.4720944e-20 -1.1191368)
(203.06399 2.4994259e-16 -0.95133556)
(202.76016 -2.3165107e-16 -0.79454635)
(202.44038 5.3631934e-17 -0.64795717)
(202.10183 1.4918825e-16 -0.51553711)
(201.74226 -4.6086647e-17 -0.39730597)
(201.37357 -4.2692327e-17 -0.27558616)
(201.00694 0 -0.166751)
(200.5589 3.6573325e-17 -0.092596382)
(220.24032 3.8889091e-16 -34.459191)
(260.02436 5.4141154e-19 -14.504121)
(241.97439 -3.5836508e-16 -34.156256)
(252.21764 0 -16.799776)
(245.24052 0 -31.686402)
(248.45674 -2.6715334e-16 -19.909452)
(245.58904 2.7046962e-16 -28.678125)
(246.15591 6.4127915e-17 -22.809503)
(244.88508 -2.4346998e-16 -26.40241)
(244.43944 2.3028383e-16 -24.547583)
(243.58461 -2.4614328e-16 -25.389159)
(242.83509 2.0688733e-16 -25.084636)
(242.0105 -4.908314e-17 -25.159342)
(241.1658 -4.6548165e-17 -25.108116)
(240.2875 -1.7638422e-16 -25.067535)
(239.37962 1.665989e-16 -25.00407)
(238.44254 -3.5578886e-16 -24.922563)
(237.47766 5.980658e-16 -24.820053)
(236.48652 -2.8257876e-16 -24.695085)
(235.47101 -2.6812984e-16 -24.545912)
(234.43332 2.5284627e-16 -24.37091)
(233.37599 -3.0116952e-17 -24.168538)
(232.30191 -2.2666937e-16 -23.937372)
(231.21427 2.1352086e-16 -23.676183)
(230.11658 2.5295171e-16 -23.383943)
(229.01264 -1.4262359e-16 -23.059886)
(227.90646 0 -22.703551)
(226.80222 2.5508502e-16 -22.314803)
(225.70422 -3.2039531e-16 -21.893873)
(224.61678 1.1272584e-16 -21.441374)
(223.54419 -2.8503465e-16 -20.958308)
(222.49059 2.0082129e-16 -20.446069)
(221.45995 -6.328295e-17 -19.906429)
(220.4559 2.3780495e-16 -19.341507)
(219.48176 -2.2306556e-16 -18.753752)
(218.54041 -2.1024232e-16 -18.145876)
(217.63425 1.9705602e-16 -17.520818)
(216.76521 -4.6216678e-17 -16.881685)
(215.93469 0 -16.231679)
(215.14357 8.1795406e-17 -15.574044)
(214.39224 -7.6339022e-17 -14.912007)
(213.68062 0 -14.248713)
(213.00819 1.3443207e-16 -13.587181)
(212.37407 -6.2889105e-17 -12.930259)
(211.77704 -1.7632817e-16 -12.280592)
(211.2156 5.5003504e-16 -11.640592)
(210.68807 -2.0595001e-16 -11.012427)
(210.19259 9.6053835e-17 -10.398011)
(209.72719 -2.6934738e-16 -9.7989954)
(209.28986 -1.8163783e-19 -9.2167834)
(208.87855 1.561764e-16 -8.6525324)
(208.49124 -1.4569618e-16 -8.1071677)
(208.12594 -6.780457e-17 -7.581399)
(207.78073 -6.3160442e-17 -7.0757364)
(207.45375 -1.1793721e-16 -6.5905079)
(207.14326 2.1902439e-16 -6.1258781)
(206.84757 0 -5.6818643)
(206.5651 9.4652836e-17 -5.2583526)
(206.29431 -3.5221436e-16 -4.8551126)
(206.03376 2.4513738e-16 -4.4718171)
(205.782 7.586524e-17 -4.1080412)
(205.53763 1.4094019e-16 -3.7632854)
(205.29931 1.3095568e-16 -3.4370063)
(205.06572 -1.2117204e-16 -3.128609)
(204.83555 -1.1229058e-16 -2.8374532)
(204.60741 -3.123735e-16 -2.5628754)
(204.37971 -4.0620344e-20 -2.3042025)
(204.15052 -8.9275259e-17 -2.0607732)
(203.91767 0 -1.8319323)
(203.67895 -2.2951359e-16 -1.6169933)
(203.43243 7.0773997e-17 -1.4152981)
(203.17625 0 -1.226428)
(202.90815 1.2109123e-16 -1.0498924)
(202.62569 0 -0.88423683)
(202.32615 1.0345543e-16 -0.72933898)
(202.00497 -1.4337135e-16 -0.59050782)
(201.66219 1.3249397e-16 -0.46404152)
(201.31611 -8.1600504e-17 -0.32604272)
(200.96482 7.5365541e-17 -0.21521885)
(200.50611 0 -0.18526598)
(220.01171 -4.0855e-16 -38.498815)
(260.14916 3.6168498e-16 -17.491833)
(241.50886 -3.3246529e-16 -38.101138)
(252.05962 3.3001605e-16 -20.050714)
(244.69319 3.1660929e-16 -35.311978)
(247.96991 -1.797585e-17 -23.366597)
(245.00136 -2.8343054e-16 -32.091027)
(245.50112 -2.6898735e-16 -26.400469)
(244.13743 2.863806e-16 -29.741773)
(243.58671 0 -28.088025)
(242.65894 2.8575462e-17 -28.755897)
(241.81417 0 -28.503299)
(240.90068 -1.2853898e-16 -28.518953)
(239.96235 2.4270083e-16 -28.442227)
(238.98981 0 -28.360876)
(237.98663 0 -28.253842)
(236.95395 0 -28.122896)
(235.89384 3.9093237e-17 -27.965334)
(234.80857 0 -27.77939)
(233.70088 -2.4449379e-16 -27.563189)
(232.57384 3.2941944e-16 -27.315015)
(231.43095 1.2464904e-16 -27.033341)
(230.27608 1.7674717e-16 -26.716847)
(229.11343 -2.7762757e-16 -26.364511)
(227.94749 -5.2314534e-17 -25.97564)
(226.78299 -2.4759743e-16 -25.549913)
(225.62483 1.8634913e-16 -25.087428)
(224.47795 -2.2010517e-16 -24.588727)
(223.3473 8.2344054e-17 -24.054807)
(222.2377 7.7856298e-17 -23.487128)
(221.15375 0 -22.887604)
(220.09974 2.770104e-16 -22.258569)
(219.07954 -2.601791e-16 -21.602755)
(218.09654 0 -20.923224)
(217.1536 -2.300177e-16 -20.223322)
(216.25295 2.1544859e-16 -19.5066)
(215.39624 -1.0153976e-16 -18.77674)
(214.58447 1.9010016e-16 -18.037488)
(213.81807 -2.671169e-16 -17.292565)
(213.09686 1.2763404e-19 -16.545609)
(212.42019 -1.5607561e-16 -15.800108)
(211.78692 -7.3042024e-17 -15.059349)
(211.19553 -1.3709533e-16 -14.326374)
(210.64419 2.5558326e-16 -13.603955)
(210.13082 -1.1926813e-16 -12.894569)
(209.65315 0 -12.200393)
(209.20881 -3.834111e-19 -11.523298)
(208.79535 9.7033433e-17 -10.864862)
(208.41033 0 -10.226378)
(208.05131 8.4402897e-17 -9.6088714)
(207.71595 7.8920271e-17 -9.0131202)
(207.40196 -7.3281329e-17 -8.4396769)
(207.10718 2.7283315e-16 -7.8888893)
(206.82955 -2.5364181e-16 -7.3609236)
(206.56717 -1.17967e-16 -6.8557852)
(206.31824 -1.0959266e-16 -6.3733394)
(206.08109 1.0176306e-16 -5.9133287)
(205.85416 1.8877266e-16 -5.47539)
(205.63598 -3.5017286e-16 -5.0590691)
(205.42517 4.0583414e-16 -4.66384)
(205.22037 -1.5037764e-16 -4.2890993)
(205.02029 1.3939111e-16 -3.9341948)
(204.82369 -1.2903573e-16 -3.5984507)
(204.62936 2.3898126e-16 -3.2811549)
(204.43611 -3.3176009e-16 -2.9815702)
(204.24271 2.0451739e-16 -2.6989488)
(204.04772 -7.991428e-20 -2.4325491)
(203.84944 8.7422066e-17 -2.1816488)
(203.64582 0 -1.9455299)
(203.43475 0 -1.7234623)
(203.21427 0 -1.5148128)
(202.98255 -1.2705967e-16 -1.3191612)
(202.73779 1.4415121e-20 -1.1357267)
(202.47817 0 -0.9628395)
(202.20017 0 -0.80140429)
(201.89769 9.1902569e-17 -0.65740487)
(201.57402 -1.6936095e-16 -0.52229478)
(201.2521 0 -0.36902936)
(200.91519 0 -0.25965795)
(200.45114 -1.3193455e-16 -0.26783559)
(219.53196 2.75801e-17 -42.73842)
(260.02241 -7.8312238e-16 -20.630121)
(240.7586 3.4781938e-16 -42.184732)
(251.3673 -2.1693336e-17 -23.484852)
(243.83586 3.7316857e-16 -39.059441)
(247.14054 -3.5161529e-16 -27.047712)
(244.08258 0 -35.616568)
(244.45384 -3.1686947e-16 -30.179688)
(243.03935 2.3298465e-16 -33.194241)
(242.36334 2.2128963e-16 -31.767303)
(241.34909 -2.3887592e-16 -32.255645)
(240.39476 0 -32.036371)
(239.37771 1.9654636e-19 -31.990938)
(238.3319 0 -31.874975)
(237.25161 3.8482026e-16 -31.741589)
(236.14042 -7.2696353e-16 -31.577415)
(235.00049 3.4320415e-16 -31.382357)
(233.83477 -4.0540478e-17 -31.153773)
(232.64662 -3.8528684e-17 -30.889684)
(231.43985 3.6624509e-17 -30.588174)
(230.21874 -6.8373671e-17 -30.247593)
(228.98801 -3.2392761e-16 -29.866591)
(227.75271 3.0486847e-16 -29.444192)
(226.51824 5.7469953e-17 -28.979857)
(225.29019 -2.7238661e-16 -28.473512)
(224.0743 -7.0288793e-19 -27.925613)
(222.87629 2.8929374e-16 -27.337151)
(221.70182 -1.8157894e-16 -26.709668)
(220.55627 -6.2481507e-19 -26.04525)
(219.44471 0 -25.346498)
(218.37173 0 -24.616493)