/*--------------------------------*- C++ -*----------------------------------*\
| =========                 |                                                 |
| \\      /  F ield         | OpenFOAM: The Open Source CFD Toolbox           |
|  \\    /   O peration     | Version:  2512                                  |
|   \\  /    A nd           | Website:  www.openfoam.com                      |
|    \\/     M anipulation  |                                                 |
\*---------------------------------------------------------------------------*/
FoamFile
{
    version     2.0;
    format      ascii;
    arch        "LSB;label=32;scalar=64";
    class       volScalarField;
    location    "0.146";
    object      alphat;
}
// * * * * * * * * * * * * * * * * * * * * * * * * * * * * * * * * * * * * * //

dimensions      [1 -1 -1 0 0 0 0];

internalField   nonuniform List<scalar> 
16000
(
5.9843328e-07
1.2047386e-05
2.0094734e-05
2.5298952e-05
2.0078843e-05
2.7274445e-05
1.9375701e-05
2.6661984e-05
2.0741201e-05
2.8834307e-05
2.4132965e-05
2.8488969e-05
2.5877644e-05
2.6581674e-05
2.5651207e-05
2.5499513e-05
2.5224322e-05
2.5149725e-05
2.5162957e-05
2.5286417e-05
2.5511904e-05
2.5838154e-05
2.6262472e-05
2.6784985e-05
2.740798e-05
2.8138058e-05
2.8984059e-05
2.9960121e-05
3.108351e-05
3.2372877e-05
3.3848712e-05
3.5538241e-05
3.7476622e-05
3.9707204e-05
4.228338e-05
4.5268921e-05
4.8739884e-05
5.2787049e-05
5.7522865e-05
6.3086818e-05
6.9642826e-05
7.7384085e-05
8.6554277e-05
9.7452143e-05
0.00011043359
0.00012592579
0.00014445866
0.00016667835
0.00019337216
0.00022550018
0.00026423823
0.0003110297
0.00036764063
0.00043623668
0.0005194737
0.00062062125
0.00074371652
0.00089376438
0.0010770072
0.0011788673
0.001179701
0.0011804308
0.0011810637
0.0011815582
0.0011819105
0.0011821083
0.0011821442
0.0011820121
0.0011817016
0.0011811938
0.0011804545
0.0011794217
0.0011780538
0.0011766122
0.0011753538
0.0011741894
0.0011730941
0.0011727574
0.0011716947
0.0011715563
5.3987478e-07
1.1387213e-05
2.1036842e-05
2.2734056e-05
1.8086895e-05
2.4440604e-05
1.7180918e-05
2.3319969e-05
1.8307075e-05
2.5420044e-05
2.1827439e-05
2.5649813e-05
2.3641102e-05
2.4058109e-05
2.3333175e-05
2.3127123e-05
2.2900237e-05
2.2822843e-05
2.2839536e-05
2.2954083e-05
2.316404e-05
2.3467738e-05
2.3863104e-05
2.4350379e-05
2.4931296e-05
2.5612026e-05
2.6400237e-05
2.7308666e-05
2.8353646e-05
2.955336e-05
3.0926891e-05
3.2499132e-05
3.4302641e-05
3.6377571e-05
3.877389e-05
4.1551574e-05
4.4782627e-05
4.8552383e-05
5.2965623e-05
5.815442e-05
6.4276334e-05
7.1513345e-05
8.0095029e-05
9.0306292e-05
0.00010248907
0.00011704957
0.00013449346
0.00015543947
0.00018064326
0.00021102703
0.0002477206
0.00029211469
0.00034591332
0.00041121024
0.00049057587
0.00058717819
0.00070493424
0.00084869656
0.0010245015
0.0011783824
0.0011792152
0.0011798962
0.0011804899
0.0011809486
0.0011812679
0.0011814352
0.0011814422
0.0011812827
0.0011809476
0.0011804187
0.0011796668
0.0011786368
0.0011772871
0.0011759124
0.0011747138
0.001173581
0.0011725814
0.0011720465
0.0011714544
0.0011715798
4.6217516e-07
1.0884069e-05
1.9896511e-05
2.0763951e-05
1.6195341e-05
2.1519105e-05
1.5283131e-05
2.0242285e-05
1.6444768e-05
2.2263049e-05
1.9879452e-05
2.2802315e-05
2.1390354e-05
2.1517341e-05
2.0962578e-05
2.0735624e-05
2.0547767e-05
2.0478765e-05
2.0501084e-05
2.0611438e-05
2.0808996e-05
2.1092518e-05
2.1460251e-05
2.1912769e-05
2.2451433e-05
2.3082217e-05
2.3812014e-05
2.46524e-05
2.561862e-05
2.6728414e-05
2.7999931e-05
2.9456235e-05
3.1127742e-05
3.3051869e-05
3.5275563e-05
3.785533e-05
4.0859611e-05
4.43695e-05
4.8483378e-05
5.332597e-05
5.9049664e-05
6.5827877e-05
7.3878185e-05
8.347269e-05
9.4942312e-05
0.00010867639
0.00012516041
0.00014499031
0.00016889556
0.00019776781
0.00023269904
0.00027503671
0.00032643355
0.00038892416
0.00046500865
0.00055777056
0.00067102653
0.00080950978
0.00097910033
0.001178052
0.0011788735
0.0011794902
0.0011800263
0.0011804316
0.0011807013
0.0011808223
0.0011807855
0.0011805847
0.0011802116
0.0011796487
0.0011788694
0.001177828
0.0011764855
0.0011751853
0.0011740508
0.0011729786
0.0011720264
0.0011714353
0.001171063
0.0011712774
4.057477e-07
1.0508139e-05
1.8886892e-05
1.9905321e-05
1.4586201e-05
1.8997184e-05
1.3611892e-05
1.7671888e-05
1.4793356e-05
1.9595735e-05
1.8135875e-05
2.0295735e-05
1.9327053e-05
1.9243401e-05
1.8816016e-05
1.8590242e-05
1.8436054e-05
1.8379949e-05
1.8409725e-05
1.8518608e-05
1.8706572e-05
1.8972945e-05
1.9316359e-05
1.9737877e-05
2.0238654e-05
2.0824625e-05
2.1502184e-05
2.2281994e-05
2.3178272e-05
2.4208397e-05
2.5389911e-05
2.6744327e-05
2.8300341e-05
3.009303e-05
3.216681e-05
3.4575224e-05
3.7383664e-05
4.0669942e-05
4.4527403e-05
4.9073996e-05
5.4458215e-05
6.0847074e-05
6.8448629e-05
7.7523732e-05
8.8395501e-05
0.00010144046
0.00011712831
0.00013603748
0.00015887752
0.00018651792
0.00022002225
0.0002607066
0.00031018653
0.00037045489
0.00044396306
0.0005337365
0.00064352289
0.00077797632
0.00094288133
0.0011454233
0.0011787436
0.0011792797
0.00117974
0.0011800753
0.0011802795
0.0011803396
0.0011802453
0.00117999
0.0011795666
0.0011789581
0.0011781395
0.0011770767
0.0011757299
0.0011744992
0.001173427
0.0011724152
0.0011714921
0.0011708665
0.0011706647
0.0011706527
3.7132646e-07
1.0237172e-05
1.8029847e-05
1.9960765e-05
1.4414114e-05
1.6799448e-05
1.2150905e-05
1.5474018e-05
1.3378152e-05
1.7308862e-05
1.6594684e-05
1.8048942e-05
1.7412083e-05
1.7185902e-05
1.6852157e-05
1.6641721e-05
1.6514219e-05
1.6470422e-05
1.6505284e-05
1.6611262e-05
1.678869e-05
1.7037642e-05
1.7357174e-05
1.7748883e-05
1.8213871e-05
1.8758078e-05
1.9387529e-05
2.011216e-05
2.0945168e-05
2.1903522e-05
2.3004373e-05
2.4267956e-05
2.5721552e-05
2.7398238e-05
2.9340273e-05
3.159865e-05
3.4236071e-05
3.7327736e-05
4.0963282e-05
4.525427e-05
5.0346003e-05
5.6400799e-05
6.3619406e-05
7.2252225e-05
8.2616632e-05
9.5079359e-05
0.00011009726
0.00012823469
0.00015018493
0.0001768006
0.00020912232
0.00024844168
0.00029634454
0.00035479102
0.00042619463
0.00051353552
0.00062050751
0.00075170259
0.00091283202
0.0011109841
0.0011787869
0.0011792284
0.001179597
0.001179847
0.0011799716
0.0011799577
0.0011797937
0.0011794724
0.0011789875
0.0011783232
0.0011774542
0.0011763605
0.0011750152
0.0011738507
0.0011728403
0.0011718881
0.0011709884
0.0011703629
0.0011702696
0.0011700024
3.275273e-07
1.0054348e-05
1.7352071e-05
1.9644862e-05
1.4183018e-05
1.4890459e-05
1.1542765e-05
1.3659596e-05
1.261516e-05
1.5439198e-05
1.525504e-05
1.6083228e-05
1.5666513e-05
1.5355319e-05
1.5079957e-05
1.4886567e-05
1.4776167e-05
1.4740147e-05
1.4776404e-05
1.4877569e-05
1.504396e-05
1.5276247e-05
1.5573756e-05
1.593836e-05
1.6371344e-05
1.6878539e-05
1.7465683e-05
1.8142173e-05
1.8920223e-05
1.9816375e-05
2.084759e-05
2.203309e-05
2.3399062e-05
2.4976947e-05
2.6807276e-05
2.8938974e-05
3.1432526e-05
3.4361122e-05
3.7812122e-05
4.1891664e-05
4.6742221e-05
5.2523192e-05
5.9430791e-05
6.7706075e-05
7.7662913e-05
8.9661757e-05
0.00010415013
0.0001216826
0.00014294062
0.00016876657
0.00020018509
0.000238472
0.0002851937
0.00034228952
0.00041215022
0.00049772848
0.00060268541
0.00073157569
0.00089007034
0.0010852062
0.0011789975
0.0011793313
0.0011795935
0.0011797446
0.0011797769
0.001179677
0.0011794324
0.0011790348
0.0011784785
0.0011777496
0.0011768208
0.0011756851
0.0011743547
0.0011732529
0.0011723027
0.0011714091
0.0011705347
0.0011699025
0.0011698347
0.0011694441
2.8759302e-07
9.9450526e-06
1.6819053e-05
1.8522996e-05
1.4002612e-05
1.3147128e-05
1.152647e-05
1.2570288e-05
1.2067339e-05
1.3720803e-05
1.4039486e-05
1.434346e-05
1.4041006e-05
1.3693978e-05
1.3452967e-05
1.3278065e-05
1.3181491e-05
1.3153011e-05
1.3191218e-05
1.3289321e-05
1.344722e-05
1.3666114e-05
1.3945584e-05
1.4203133e-05
1.4598976e-05
1.5065936e-05
1.5609084e-05
1.6237038e-05
1.6960858e-05
1.7796294e-05
1.8760092e-05
1.98705e-05
2.1152715e-05
2.2636641e-05
2.436123e-05
2.6373548e-05
2.8732027e-05
3.1507903e-05
3.4787137e-05
3.8963365e-05
4.3621851e-05
4.9186262e-05
5.5851073e-05
6.3849417e-05
7.3492944e-05
8.5139232e-05
9.9229855e-05
0.00011631352
0.00013706357
0.00016231832
0.00019309256
0.0002306543
0.00027655954
0.00033273735
0.00040156883
0.00048599503
0.00058966276
0.00071711057
0.00087399556
0.0010673405
0.0011793534
0.0011795679
0.0011797115
0.0011797521
0.0011796813
0.0011794855
0.0011791514
0.0011786691
0.0011780329
0.0011772322
0.0011762376
0.0011750466
0.0011737572
0.0011727147
0.0011718219
0.0011709863
0.0011701437
0.0011694955
0.0011693738
0.0011689584
2.6453992e-07
9.8820837e-06
1.6357479e-05
1.6795991e-05
1.2543388e-05
1.1448318e-05
9.7169732e-06
1.1164909e-05
1.0212198e-05
1.2361395e-05
1.2810267e-05
1.2742754e-05
1.2489516e-05
1.2153523e-05
1.1941944e-05
1.179112e-05
1.1711362e-05
1.1693797e-05
1.1665889e-05
1.1746984e-05
1.1887496e-05
1.2087715e-05
1.2345908e-05
1.266192e-05
1.3040647e-05
1.3485782e-05
1.4002568e-05
1.4599591e-05
1.528734e-05
1.608113e-05
1.6997979e-05
1.8055654e-05
1.9278931e-05
2.0696785e-05
2.2347304e-05
2.4276428e-05
2.6541421e-05
2.9212383e-05
3.2374899e-05
3.6133232e-05
4.0614531e-05
4.5979815e-05
5.2423924e-05
6.0681152e-05
7.0106494e-05
8.1512649e-05
9.5339031e-05
0.00011213232
0.00013256167
0.00015746791
0.00018786253
0.00022501408
0.0002704781
0.00032618477
0.00039451956
0.00047842914
0.00058156629
0.00070847694
0.00086483188
0.0010576785
0.0011798337
0.0011799195
0.0011799348
0.0011798555
0.0011796729
0.0011793733
0.0011789425
0.0011783691
0.0011776464
0.0011767674
0.0011757059
0.0011744475
0.0011732306
0.0011722447
0.0011714056
0.0011706274
0.0011698247
0.001169155
0.0011689732
0.0011685399
2.3991459e-07
9.8410709e-06
1.5863928e-05
1.4707057e-05
1.0275381e-05
1.0198964e-05
8.0381311e-06
9.5892365e-06
9.7589224e-06
1.1077656e-05
1.1574483e-05
1.126302e-05
1.103556e-05
1.0735745e-05
1.0552855e-05
1.0354758e-05
1.0265795e-05
1.0244091e-05
1.0282301e-05
1.0377103e-05
1.0523378e-05
1.0724745e-05
1.0978671e-05
1.1285933e-05
1.1651326e-05
1.2079439e-05
1.2575628e-05
1.3148551e-05
1.3808336e-05
1.4569863e-05
1.5450543e-05
1.6467932e-05
1.764671e-05
1.9015243e-05
2.0611121e-05
2.2479656e-05
2.4677456e-05
2.7274075e-05
3.0354569e-05
3.4022495e-05
3.840563e-05
4.3662969e-05
4.9992821e-05
5.7625339e-05
6.6855462e-05
7.8050158e-05
9.2459977e-05
0.00010911915
0.00012941284
0.00015419066
0.00018446775
0.00022152164
0.00026691741
0.00032259797
0.00039096744
0.00047499572
0.00057836256
0.00070564549
0.00086255618
0.0010562031
0.0011804136
0.0011803634
0.0011802434
0.0011800375
0.0011797366
0.0011793275
0.0011787949
0.0011781262
0.0011773127
0.0011763497
0.0011752245
0.0011739155
0.0011727812
0.0011718502
0.0011710607
0.0011703385
0.0011695839
0.0011688895
0.00116862
0.0011681275
2.1780567e-07
9.796893e-06
1.4040303e-05
1.2860663e-05
8.3073445e-06
9.0795269e-06
7.2872764e-06
8.6369201e-06
9.03918e-06
9.9120039e-06
1.03561e-05
9.9220606e-06
9.7044695e-06
9.3545931e-06
9.1628442e-06
9.0419211e-06
8.9888504e-06
8.99416e-06
9.0504634e-06
9.1585393e-06
9.3124026e-06
9.51428e-06
9.7657861e-06
1.0067024e-05
1.042309e-05
1.083906e-05
1.1320491e-05
1.1876273e-05
1.251634e-05
1.3255178e-05
1.4110657e-05
1.510045e-05
1.6249382e-05
1.7585488e-05
1.9146206e-05
2.0976649e-05
2.3133252e-05
2.5685611e-05
2.8719303e-05
3.2338558e-05
3.6671509e-05
4.1877005e-05
4.8157321e-05
5.5743139e-05
6.4932571e-05
7.6095571e-05
8.9688349e-05
0.00010624672
0.00012760643
0.00015247726
0.00018290161
0.00022017428
0.00026588077
0.00032198896
0.00039093669
0.00047573583
0.00058011558
0.00070871169
0.00086730574
0.0010631027
0.0011810668
0.0011808759
0.0011806165
0.0011802798
0.0011798568
0.0011793344
0.0011786972
0.0011779309
0.0011770253
0.0011759744
0.0011747858
0.0011734751
0.001172414
0.0011715366
0.0011707929
0.0011701232
0.0011694209
0.0011687075
0.0011683317
0.0011678184
1.9893998e-07
9.7463528e-06
1.1135545e-05
1.0576115e-05
6.8829882e-06
8.0873026e-06
6.6562688e-06
7.7652153e-06
8.4621833e-06
8.8508648e-06
9.1624081e-06
8.6120631e-06
8.3456125e-06
8.1026723e-06
7.9616611e-06
7.8825362e-06
7.8595166e-06
7.8890503e-06
7.9632102e-06
8.0814312e-06
8.2422336e-06
8.4473758e-06
8.6988896e-06
8.9975484e-06
9.3485815e-06
9.7575908e-06
1.0230488e-05
1.0776453e-05
1.1405433e-05
1.2131589e-05
1.290678e-05
1.3870619e-05
1.499203e-05
1.6298667e-05
1.7827787e-05
1.9624327e-05
2.1744624e-05
2.4258381e-05
2.7251834e-05
3.0830214e-05
3.5123174e-05
4.060736e-05
4.6902915e-05
5.452011e-05
6.3760398e-05
7.4998153e-05
8.8703097e-05
0.00010542434
0.00012585432
0.00015085631
0.00018314923
0.00022096072
0.0002673623
0.00032435965
0.00039444027
0.000480678
0.00058687537
0.00071775542
0.00087920153
0.0010785492
0.001181766
0.0011814321
0.0011810322
0.0011805632
0.0011800165
0.0011793797
0.001178637
0.0011777729
0.0011767763
0.0011756387
0.0011743785
0.0011731248
0.0011721324
0.0011713072
0.0011706061
0.0011699838
0.001169331
0.0011686069
0.0011681397
0.0011676992
1.8344659e-07
9.6981662e-06
8.7961187e-06
9.0147656e-06
6.1700977e-06
7.1724364e-06
6.1162098e-06
7.0074967e-06
7.8760142e-06
7.8637844e-06
7.8678951e-06
7.3992257e-06
7.1825469e-06
7.0048218e-06
6.9071282e-06
6.8632635e-06
6.868132e-06
6.9170261e-06
7.0066077e-06
7.1366422e-06
7.3056576e-06
7.5158794e-06
7.7703072e-06
8.0702573e-06
8.4211089e-06
8.7909657e-06
9.254067e-06
9.7899069e-06
1.0408303e-05
1.1122944e-05
1.1950302e-05
1.2911782e-05
1.4031562e-05
1.5337443e-05
1.6867137e-05
1.8666183e-05
2.079178e-05
2.3314759e-05
2.6323329e-05
2.9925236e-05
3.4253532e-05
3.9474499e-05
4.5791924e-05
5.3450265e-05
6.2756568e-05
7.4736603e-05
8.868316e-05
0.00010571996
0.00012655271
0.00015207243
0.00018336791
0.00022387058
0.00027135908
0.0003297175
0.00040149975
0.00048986326
0.00059870955
0.00073288087
0.00089839912
0.0011027636
0.0011824841
0.0011820074
0.0011814689
0.0011808686
0.001180199
0.0011794485
0.0011786015
0.0011776412
0.0011765561
0.001175342
0.0011740101
0.0011728644
0.001171937
0.0011711629
0.0011705026
0.0011699211
0.001169314
0.0011685992
0.0011680774
0.0011676976
1.6948245e-07
9.6265733e-06
7.0075867e-06
7.9314576e-06
5.5095873e-06
6.3553282e-06
5.6527573e-06
6.3356235e-06
7.1756072e-06
6.7428904e-06
6.7000723e-06
6.3399065e-06
6.1691856e-06
6.0445734e-06
5.9842996e-06
5.9709225e-06
5.9997412e-06
6.0682287e-06
6.173247e-06
6.3155203e-06
6.4945314e-06
6.712647e-06
6.9439289e-06
7.2428861e-06
7.59269e-06
7.9983204e-06
8.4680218e-06
9.0106306e-06
9.6362005e-06
1.0358656e-05
1.1194664e-05
1.2165417e-05
1.329657e-05
1.4616415e-05
1.6163423e-05
1.7984165e-05
2.0137321e-05
2.2695441e-05
2.5749517e-05
2.9410973e-05
3.3816487e-05
3.9136403e-05
4.5585293e-05
5.3414169e-05
6.2940143e-05
7.4557686e-05
8.8756889e-05
0.00010613034
0.00012853005
0.00015478887
0.0001870105
0.00022658651
0.00027785918
0.00033806076
0.00041212678
0.00050332187
0.00061567443
0.0007541797
0.00092504206
0.0011359611
0.0011831951
0.0011825783
0.0011819054
0.0011811774
0.0011803879
0.0011795264
0.0011785782
0.0011775256
0.0011763549
0.0011750782
0.0011737539
0.0011726905
0.0011718258
0.0011711026
0.0011704835
0.0011699352
0.0011693636
0.0011686826
0.0011681568
0.0011678006
1.5728962e-07
9.5003351e-06
5.6364824e-06
6.951119e-06
4.9181088e-06
5.6283556e-06
5.2612724e-06
5.6498605e-06
6.2925876e-06
5.7708689e-06
5.6775037e-06
5.4156644e-06
5.2881777e-06
5.2080224e-06
5.1809962e-06
5.1952174e-06
5.2466905e-06
5.333997e-06
5.4550636e-06
5.5900952e-06
5.774812e-06
5.9988315e-06
6.2649455e-06
6.5767298e-06
6.9392404e-06
7.3578572e-06
7.8407149e-06
8.3973442e-06
9.0380473e-06
9.7769534e-06
1.0630908e-05
1.1621431e-05
1.2717147e-05
1.4051068e-05
1.5615309e-05
1.7457443e-05
1.9637866e-05
2.2230899e-05
2.5330364e-05
2.9051938e-05
3.3537071e-05
3.9257199e-05
4.5896445e-05
5.3967395e-05
6.3798484e-05
7.5796002e-05
9.0474083e-05
0.00010845219
0.00013048911
0.00015897268
0.00019238985
0.00023345351
0.00028394091
0.00034937101
0.00042631479
0.00052106314
0.00063780298
0.00078171696
0.00095924276
0.0011783298
0.0011838746
0.001183123
0.0011823224
0.0011814725
0.0011805682
0.0011796
0.0011785547
0.0011774164
0.0011761689
0.0011748271
0.00117359
0.0011726017
0.0011717955
0.0011711231
0.001170548
0.0011700262
0.0011694736
0.0011688479
0.0011683975
0.001168059
1.4657576e-07
9.2851286e-06
4.6059827e-06
6.076041e-06
4.3901177e-06
4.9840112e-06
4.9218625e-06
4.9037567e-06
5.4027931e-06
4.9067189e-06
4.7939262e-06
4.6130953e-06
4.5264619e-06
4.4846748e-06
4.4878929e-06
4.5277917e-06
4.6012285e-06
4.6890005e-06
4.8210546e-06
4.9882418e-06
5.191751e-06
5.433498e-06
5.7170019e-06
6.0460172e-06
6.426199e-06
6.8631927e-06
7.3651982e-06
7.9184576e-06
8.5745359e-06
9.3298043e-06
1.0201213e-05
1.1210376e-05
1.2383753e-05
1.3754617e-05
1.5362705e-05
1.7257267e-05
1.9501563e-05
2.2172857e-05
2.5368867e-05
2.9211307e-05
3.3848325e-05
3.9466593e-05
4.6291919e-05
5.460251e-05
6.4741208e-05
7.7777494e-05
9.3056985e-05
0.00011178502
0.00013475841
0.00016296013
0.00019945805
0.00024233284
0.00029506773
0.00035994998
0.00044401965
0.0005430523
0.00066507623
0.00081549692
0.0010010371
0.001185355
0.0011845009
0.0011836228
0.0011827032
0.001181739
0.0011807265
0.0011796577
0.0011785203
0.001177302
0.0011759973
0.0011746363
0.0011735118
0.0011725934
0.0011718413
0.0011712191
0.0011706917
0.0011701939
0.0011696428
0.0011690775
0.0011687664
0.0011684432
1.3725201e-07
8.9831626e-06
3.9593352e-06
5.2990488e-06
3.9211842e-06
4.4142438e-06
4.382743e-06
4.2299862e-06
4.5453907e-06
4.1446201e-06
4.0384498e-06
3.9222363e-06
3.8739005e-06
3.8662218e-06
3.8975317e-06
3.9474518e-06
4.0357479e-06
4.1579497e-06
4.3133717e-06
4.5024635e-06
4.7270475e-06
4.9895621e-06
5.2939503e-06
5.6442529e-06
6.0328925e-06
6.4885879e-06
7.0098479e-06
7.6061939e-06
8.2896128e-06
9.0744096e-06
9.978032e-06
1.1023041e-05
1.223706e-05
1.365472e-05
1.5318587e-05
1.7279833e-05
1.9605231e-05
2.2375829e-05
2.5693532e-05
2.9687484e-05
3.4511977e-05
4.0363338e-05
4.7482356e-05
5.6160034e-05
6.6758951e-05
7.9724049e-05
9.6452041e-05
0.00011607466
0.00014015529
0.00016973792
0.00020608039
0.00025314409
0.00030851149
0.00037665615
0.00046054105
0.00056917994
0.00069738618
0.00085541993
0.001050331
0.0011860215
0.0011850556
0.0011840622
0.0011830337
0.0011819648
0.001180852
0.0011796899
0.001178468
0.0011771757
0.0011758242
0.0011745449
0.0011735104
0.0011726591
0.0011719579
0.0011713842
0.0011709061
0.0011704342
0.0011698766
0.0011693581
0.0011691863
0.0011689328
1.2936139e-07
8.1067581e-06
3.4922264e-06
4.6050067e-06
3.5060263e-06
3.7451173e-06
3.9078897e-06
3.6129038e-06
3.7689588e-06
3.4832445e-06
3.3999564e-06
3.3352282e-06
3.3222407e-06
3.3457606e-06
3.3866751e-06
3.4702664e-06
3.5865665e-06
3.7343854e-06
3.913964e-06
4.1264977e-06
4.3743667e-06
4.6602861e-06
4.979085e-06
5.350785e-06
5.7745379e-06
6.2570196e-06
6.8062725e-06
7.4321873e-06
8.1470328e-06
8.9660598e-06
9.9073201e-06
1.0994394e-05
1.2256226e-05
1.3729253e-05
1.5392539e-05
1.7415929e-05
1.9817182e-05
2.2681709e-05
2.6273134e-05
3.0446877e-05
3.5493992e-05
4.1620392e-05
4.9083158e-05
5.8189229e-05
6.9320048e-05
8.2947893e-05
9.9652275e-05
0.00012014453
0.00014659678
0.00017775772
0.0002160561
0.00026315033
0.00032412667
0.00039598761
0.00048446505
0.00059922515
0.00073448834
0.00090122601
0.0011068518
0.001186597
0.0011855268
0.0011844298
0.0011833035
0.0011821406
0.0011809371
0.0011796896
0.001178392
0.0011770418
0.0011756723
0.0011745288
0.0011735781
0.0011727904
0.0011721387
0.0011716113
0.0011711792
0.0011707366
0.001170182
0.0011697105
0.0011696729
0.0011696011
1.2315035e-07
5.9129898e-06
3.0942012e-06
3.976801e-06
3.1479343e-06
3.127103e-06
3.4334578e-06
3.053323e-06
3.1013794e-06
2.9187147e-06
2.8664498e-06
2.8443445e-06
2.8556109e-06
2.9001647e-06
2.9813198e-06
3.0946392e-06
3.2380849e-06
3.4115297e-06
3.6160041e-06
3.8531635e-06
4.1198507e-06
4.4288278e-06
4.7802656e-06
5.1789167e-06
5.630474e-06
6.1418584e-06
6.7215033e-06
7.3797103e-06
8.1291651e-06
8.9661132e-06
9.9426213e-06
1.1068594e-05
1.2374209e-05
1.3897278e-05
1.5685086e-05
1.7796739e-05
2.03053e-05
2.3302206e-05
2.6900885e-05
3.1241449e-05
3.6497838e-05
4.3193096e-05
5.1044105e-05
6.0634071e-05
7.2364565e-05
8.6734847e-05
0.00010435908
0.00012599347
0.00015396832
0.00018688728
0.00022736291
0.00027714664
0.00034169156
0.00041768443
0.0005112763
0.00062658117
0.00077595738
0.00095243382
0.0011700637
0.0011870749
0.0011859078
0.0011847186
0.0011835056
0.0011822607
0.0011809777
0.0011796541
0.0011782893
0.0011768976
0.0011756183
0.001174575
0.0011737048
0.0011729774
0.0011723755
0.0011718923
0.0011714989
0.001171086
0.0011705572
0.0011701452
0.0011702185
0.0011702774
1.1828019e-07
4.4251276e-06
2.7379535e-06
3.3956191e-06
2.6912099e-06
2.6076883e-06
2.9328057e-06
2.5549016e-06
2.5465112e-06
2.4450775e-06
2.4278775e-06
2.4352606e-06
2.4793396e-06
2.5596716e-06
2.6717524e-06
2.8129859e-06
2.9826433e-06
3.1813324e-06
3.4074755e-06
3.6681042e-06
3.9644162e-06
4.2997462e-06
4.6781614e-06
5.1046185e-06
5.5851069e-06
6.1268567e-06
6.7386571e-06
7.4201062e-06
8.2023492e-06
9.0940802e-06
1.011571e-05
1.1292597e-05
1.2656701e-05
1.4248154e-05
1.6117257e-05
1.8326682e-05
2.0954307e-05
2.4096995e-05
2.7875228e-05
3.2438465e-05
3.797187e-05
4.4703712e-05
5.3309926e-05
6.3430069e-05
7.5817477e-05
9.1000451e-05
0.0001096295
0.00013250711
0.00016062299
0.00019694839
0.00023978932
0.000292498
0.00035737769
0.0004413742
0.0005405255
0.00066270843
0.00082114473
0.0010082798
0.0011887143
0.0011874526
0.0011861975
0.001184927
0.0011836374
0.001182322
0.0011809721
0.0011795842
0.0011781707
0.0011767759
0.0011756286
0.0011746756
0.0011738798
0.0011732101
0.001172658
0.0011722189
0.0011718549
0.0011714653
0.0011709835
0.0011706528
0.0011708048
0.0011709012
1.1312977e-07
3.9397364e-06
2.3588735e-06
2.8580794e-06
2.3186571e-06
2.1730111e-06
2.4160886e-06
2.1191579e-06
2.0979232e-06
2.0590735e-06
2.072585e-06
2.1159924e-06
2.1972185e-06
2.3091501e-06
2.4490875e-06
2.6160311e-06
2.8102643e-06
3.0307888e-06
3.2831884e-06
3.5687692e-06
3.8904956e-06
4.2519684e-06
4.6575021e-06
5.1122583e-06
5.6224456e-06
6.1955693e-06
6.8331883e-06
7.5583345e-06
8.3796933e-06
9.3143754e-06
1.038391e-05
1.1615176e-05
1.3041978e-05
1.4706805e-05
1.6663121e-05
1.8977841e-05
2.1734013e-05
2.5034526e-05
2.9007306e-05
3.3810429e-05
3.9640075e-05
4.7077019e-05
5.5815794e-05
6.6501082e-05
7.95885e-05
9.5636855e-05
0.00011533473
0.00013953145
0.0001708431
0.00020771003
0.00025305494
0.00030886064
0.00037757089
0.00046655038
0.00057160613
0.00070110581
0.00086913076
0.0010676467
0.0011890605
0.0011877309
0.0011863997
0.0011850585
0.0011837016
0.0011823249
0.0011809215
0.0011794837
0.0011780334
0.001176747
0.0011756908
0.0011748188
0.0011740924
0.0011734793
0.0011729744
0.0011725799
0.0011722407
0.0011718665
0.0011714334
0.0011711983
0.0011714195
0.0011715185
1.097019e-07
3.4299449e-06
2.0333927e-06
2.3113945e-06
2.0135824e-06
1.8022158e-06
1.9376249e-06
1.752116e-06
1.7483309e-06
1.7595338e-06
1.8042118e-06
1.886173e-06
1.9986285e-06
2.1375361e-06
2.3018246e-06
2.491736e-06
2.7071795e-06
2.9518242e-06
3.2275058e-06
3.5369475e-06
3.8834112e-06
4.2707171e-06
4.7033479e-06
5.1866157e-06
5.7268985e-06
6.3276265e-06
7.0046825e-06
7.7668883e-06
8.6285438e-06
9.6076003e-06
1.0726849e-05
1.2014764e-05
1.3507186e-05
1.5249103e-05
1.7297071e-05
1.9722188e-05
2.2613295e-05
2.6079411e-05
3.0256633e-05
3.5312458e-05
4.1727176e-05
4.9271866e-05
5.8484395e-05
6.9756646e-05
8.3569113e-05
0.00010051373
0.00012131875
0.00014688297
0.00017992166
0.00021887583
0.00026680333
0.00032580267
0.00039846798
0.00049253821
0.0006037005
0.00074078276
0.00091868619
0.0011290345
0.0011893099
0.0011879184
0.0011865223
0.0011851212
0.0011837067
0.0011822749
0.0011808267
0.0011793714
0.0011779442
0.0011767772
0.001175801
0.0011749944
0.0011743293
0.0011737774
0.0011733121
0.0011729597
0.0011726445
0.0011722875
0.0011719049
0.0011717617
0.0011720348
0.0011721127
1.0826564e-07
2.8979618e-06
1.7522215e-06
1.7850521e-06
1.7352231e-06
1.4865567e-06
1.5482434e-06
1.4614493e-06
1.4896233e-06
1.5364677e-06
1.6200045e-06
1.7323444e-06
1.8699356e-06
2.0311868e-06
2.2163766e-06
2.426674e-06
2.6630522e-06
2.9290334e-06
3.2267511e-06
3.5591958e-06
3.9298035e-06
4.3425375e-06
4.8020045e-06
5.3136362e-06
5.8839393e-06
6.5208369e-06
7.2341091e-06
8.0359249e-06
8.9312416e-06
9.9552474e-06
1.1124956e-05
1.2470539e-05
1.403001e-05
1.5851081e-05
1.799345e-05
2.0615384e-05
2.366718e-05
2.7329558e-05
3.1747508e-05
3.709983e-05
4.3606687e-05
5.1538776e-05
6.1230492e-05
7.3093455e-05
8.7634676e-05
0.00010547916
0.00012739611
0.00015568195
0.00018905067
0.0002300918
0.00028059937
0.00034279043
0.0004233778
0.00051850424
0.00063578819
0.00078049386
0.00096825433
0.0011905389
0.001189478
0.0011880299
0.0011865779
0.0011851255
0.0011836652
0.0011821892
0.0011806948
0.0011792153
0.0011779293
0.0011768528
0.0011759524
0.0011751995
0.0011745771
0.0011740905
0.0011736617
0.0011733436
0.0011730522
0.0011727208
0.0011723955
0.0011723279
0.0011726253
0.0011726705
1.0988933e-07
2.3670702e-06
1.5185332e-06
1.3809299e-06
1.4546189e-06
1.2231222e-06
1.2639248e-06
1.2491252e-06
1.3103508e-06
1.3915205e-06
1.5032192e-06
1.6384871e-06
1.7960104e-06
1.9759188e-06
2.1794365e-06
2.4083126e-06
2.6643195e-06
2.9504942e-06
3.2693797e-06
3.6240987e-06
4.0181887e-06
4.4557057e-06
4.9413577e-06
5.4806961e-06
6.080379e-06
6.7485281e-06
7.4952044e-06
8.3330031e-06
9.2777917e-06
1.0349645e-05
1.1573941e-05
1.2982823e-05
1.4616785e-05
1.6526727e-05
1.8776347e-05
2.1445072e-05
2.4631691e-05
2.8459062e-05
3.307915e-05
3.8679998e-05
4.5493786e-05
5.3806048e-05
6.396592e-05
7.6405896e-05
9.1657242e-05
0.0001112887
0.00013445319
0.00016291489
0.00019790934
0.00024096317
0.00029396088
0.00036260481
0.0004436254
0.00054349554
0.00066669272
0.00082673522
0.0010159959
0.001191101
0.001189582
0.0011880848
0.0011865857
0.0011850864
0.0011835852
0.0011820826
0.0011805832
0.001179126
0.0011779497
0.0011769582
0.0011761304
0.0011754366
0.0011748567
0.0011743824
0.0011740145
0.00117372
0.0011734505
0.0011731527
0.0011728917
0.0011728843
0.0011731795
0.0011731974
1.1579084e-07
1.8727659e-06
1.3309519e-06
1.0864713e-06
1.3015736e-06
1.0036203e-06
1.0707993e-06
1.1081968e-06
1.1959367e-06
1.3042472e-06
1.4363456e-06
1.5891988e-06
1.763213e-06
1.959528e-06
2.1798586e-06
2.4262126e-06
2.7008751e-06
3.0062159e-06
3.3453385e-06
3.721335e-06
4.137818e-06
4.5989279e-06
5.1094761e-06
5.6751432e-06
6.3027543e-06
7.0006489e-06
7.7791808e-06
8.6513977e-06
9.6337894e-06
1.074731e-05
1.2018477e-05
1.3480962e-05
1.5177219e-05
1.7160648e-05
1.9498083e-05
2.2272889e-05
2.5588649e-05
2.9573712e-05
3.4386751e-05
4.0223622e-05
4.7648935e-05
5.638471e-05
6.7061436e-05
8.0132632e-05
9.6155717e-05
0.00011581736
0.00013996423
0.00016964068
0.00020613197
0.00025337877
0.00030907205
0.00037765439
0.00046216776
0.00056638988
0.00070179814
0.00086184844
0.001059658
0.0011911828
0.0011896331
0.0011881008
0.0011865681
0.0011850322
0.0011834898
0.0011819459
0.001180434
0.0011791066
0.0011780012
0.0011770784
0.0011763085
0.0011756639
0.001175137
0.0011746918
0.0011743543
0.0011740811
0.0011738295
0.0011735682
0.0011733732
0.0011734184
0.0011736961
0.0011736731
1.2670278e-07
1.4982378e-06
1.1723805e-06
9.4005838e-07
9.5446489e-07
8.7983454e-07
9.4230181e-07
1.0219348e-06
1.1298507e-06
1.2571282e-06
1.4045804e-06
1.5720068e-06
1.7606317e-06
1.971977e-06
2.2078995e-06
2.4704723e-06
2.7620156e-06
3.0851163e-06
3.4426743e-06
3.8379562e-06
4.2746731e-06
4.7570873e-06
5.2901613e-06
5.8797701e-06
6.5329957e-06
7.2559359e-06
8.063077e-06
8.9662664e-06
9.9915396e-06
1.1146727e-05
1.2465673e-05
1.3983712e-05
1.5745359e-05
1.7806527e-05
2.0237138e-05
2.3124285e-05
2.6576089e-05
3.0726421e-05
3.5740653e-05
4.1822796e-05
4.9224268e-05
5.8254736e-05
6.929527e-05
8.2812725e-05
9.9384133e-05
0.00011971944
0.00014598195
0.0001769125
0.00021493642
0.00026171371
0.00031929719
0.00039023296
0.00047767984
0.00059113051
0.000725308
0.00089109696
0.0010961656
0.0011912315
0.0011896523
0.0011880903
0.0011865342
0.0011849803
0.001183425
0.0011818735
0.0011803701
0.0011791326
0.0011780881
0.0011772166
0.0011764896
0.0011758862
0.0011754144
0.0011749852
0.0011746736
0.0011744182
0.0011741831
0.001173957
0.0011738183
0.0011739014
0.0011741599
0.0011741175
1.4860968e-07
1.5077629e-06
1.0119698e-06
7.1804951e-07
7.7896826e-07
7.8595274e-07
8.6966057e-07
9.7168252e-07
1.0956762e-06
1.2374069e-06
1.39805e-06
1.5785118e-06
1.7802925e-06
2.005025e-06
2.2545947e-06
2.5311033e-06
2.8369049e-06
3.1746354e-06
3.5472554e-06
3.9581027e-06
4.4109658e-06
4.9101874e-06
5.4608134e-06
6.0688052e-06
6.7413425e-06
7.4872368e-06
8.3174789e-06
9.2459399e-06
1.0290259e-05
1.1472899e-05
1.2822419e-05
1.4375062e-05
1.6176549e-05
1.8284321e-05
2.0770183e-05
2.3723534e-05
2.7255289e-05
3.1502647e-05
3.6634943e-05
4.2860836e-05
5.0437295e-05
6.0108212e-05
7.1495892e-05
8.54338e-05
0.00010251592
0.00012347271
0.00014920546
0.00018082691
0.00021971218
0.00026756038
0.00032648066
0.00040277257
0.00049296048
0.00060424536
0.00074170505
0.0009116874
0.001122131
0.0011912911
0.0011896809
0.0011880864
0.0011865015
0.0011849234
0.0011833525
0.0011818058
0.0011803746
0.0011791979
0.0011782052
0.0011773758
0.0011766832
0.0011761106
0.0011756401
0.0011752653
0.0011749634
0.0011747257
0.0011745082
0.0011743145
0.001174213
0.0011742998
0.0011745184
0.0011744858
1.4493439e-07
9.2235318e-07
8.2860056e-07
6.1125566e-07
6.6865237e-07
7.2893938e-07
8.3088866e-07
9.4947589e-07
1.0863675e-06
1.2405521e-06
1.4132813e-06
1.6057483e-06
1.8194819e-06
2.0561834e-06
2.3177793e-06
2.606429e-06
2.924554e-06
3.2748256e-06
3.6603412e-06
4.0844972e-06
4.5511658e-06
5.0647742e-06
5.630455e-06
6.2542605e-06
6.9434708e-06
7.7070143e-06
8.5560274e-06
9.5045763e-06
1.0579198e-05
1.1789331e-05
1.3170057e-05
1.4758541e-05
1.6601602e-05
1.8758006e-05
2.1301144e-05
2.4322332e-05
2.7934792e-05
3.2278532e-05
3.7526336e-05
4.389111e-05
5.163489e-05
6.1079849e-05
7.262183e-05
8.6749242e-05
0.00010406276
0.00012530314
0.00015138451
0.00018504591
0.00022475204
0.00027360132
0.00033374931
0.00040786989
0.00049929075
0.00061216148
0.0007516688