/*--------------------------------*- C++ -*----------------------------------*\
| =========                 |                                                 |
| \\      /  F ield         | OpenFOAM: The Open Source CFD Toolbox           |
|  \\    /   O peration     | Version:  2512                                  |
|   \\  /    A nd           | Website:  www.openfoam.com                      |
|    \\/     M anipulation  |                                                 |
\*---------------------------------------------------------------------------*/
FoamFile
{
    version     2.0;
    format      ascii;
    arch        "LSB;label=32;scalar=64";
    class       volScalarField;
    location    "0.146";
    object      k;
}
// * * * * * * * * * * * * * * * * * * * * * * * * * * * * * * * * * * * * * //

dimensions      [0 2 -2 0 0 0 0];

internalField   nonuniform List<scalar> 
16000
(
0.059813215
0.021383284
0.022404521
0.016516823
0.013993269
0.01267053
0.011881112
0.011407664
0.011091025
0.010876067
0.010717639
0.010599633
0.010507424
0.010434407
0.010375639
0.010328171
0.010289367
0.010257482
0.010231505
0.010210027
0.010192615
0.010178326
0.010166864
0.010157742
0.010150616
0.010145195
0.010141287
0.010138714
0.010137339
0.010137029
0.01013766
0.01013913
0.010141355
0.010144265
0.010147798
0.010151897
0.010156503
0.010161557
0.010167003
0.010172784
0.010178839
0.010185099
0.010191499
0.010197972
0.010204446
0.010210848
0.010217119
0.010223211
0.010229083
0.010234699
0.01024002
0.010245008
0.010249617
0.010253804
0.010257525
0.01026074
0.010263408
0.010265481
0.010266907
0.010267627
0.010267562
0.010266612
0.010264672
0.010261602
0.010257231
0.010251397
0.010243982
0.010234894
0.010223989
0.010210989
0.010195398
0.010176285
0.010153041
0.010129743
0.010110486
0.010093986
0.010080183
0.010082639
0.010066223
0.010089797
0.055631282
0.020037176
0.02095184
0.015970996
0.013650565
0.012469986
0.011719833
0.011295582
0.010990976
0.010793507
0.010645052
0.010535782
0.010449948
0.010382395
0.01032807
0.010284444
0.010248999
0.010219971
0.010196615
0.010177416
0.010162126
0.010149747
0.010140049
0.010132572
0.010126992
0.010123016
0.010120463
0.010119161
0.010118976
0.010119787
0.010121471
0.010123927
0.010127067
0.010130822
0.01013513
0.010139931
0.01014517
0.010150786
0.010156725
0.01016293
0.010169344
0.0101759
0.010182535
0.010189185
0.010195784
0.010202259
0.010208551
0.010214614
0.010220409
0.010225904
0.010231067
0.010235865
0.010240259
0.010244207
0.010247672
0.010250615
0.010253001
0.010254785
0.010255919
0.010256347
0.010256
0.010254785
0.010252603
0.010249322
0.010244771
0.010238777
0.010231204
0.010221964
0.010210924
0.010197827
0.010182252
0.010163388
0.010140622
0.010118539
0.010100341
0.010084485
0.010072665
0.010070528
0.010064993
0.010089944
0.049041422
0.019070712
0.019622639
0.015410287
0.013300009
0.012244531
0.011552549
0.01116958
0.010888927
0.010709538
0.010572192
0.010472089
0.010393128
0.010331335
0.010281776
0.010242222
0.010210373
0.010184395
0.010163841
0.010147076
0.010134048
0.010123709
0.010115891
0.010110157
0.010106212
0.010103764
0.010102641
0.010102679
0.010103747
0.01010573
0.010108512
0.010111989
0.010116075
0.010120696
0.01012579
0.010131297
0.01013716
0.010143321
0.010149724
0.010156313
0.010163034
0.010169823
0.010176618
0.010183361
0.010189989
0.010196434
0.010202639
0.010208559
0.01021416
0.010219413
0.010224294
0.010228775
0.010232824
0.010236405
0.010239483
0.010242025
0.010244
0.010245368
0.010246084
0.010246095
0.010245336
0.010243726
0.010241172
0.010237548
0.010232686
0.010226407
0.010218561
0.010209054
0.010197768
0.010184458
0.010168749
0.010149978
0.010127577
0.010106864
0.010089819
0.010075119
0.010064297
0.010060425
0.010060782
0.01008414
0.044204556
0.018414919
0.018479874
0.014907513
0.012982753
0.012040991
0.01139978
0.01105555
0.01079543
0.010632472
0.01050572
0.010414085
0.010341681
0.010285337
0.01024033
0.010204658
0.01017628
0.010153227
0.010135394
0.010120984
0.010110161
0.010101813
0.010095836
0.010091806
0.010089463
0.010088514
0.010088794
0.010090144
0.010092436
0.010095559
0.010099401
0.010103856
0.010108838
0.010114269
0.010120086
0.010126228
0.010132636
0.010139255
0.010146026
0.010152896
0.010159814
0.01016672
0.010173555
0.010180265
0.010186794
0.01019308
0.010199067
0.010204715
0.010209994
0.010214881
0.010219355
0.010223398
0.010226984
0.010230084
0.010232667
0.010234704
0.010236166
0.010237022
0.010237227
0.010236732
0.010235478
0.01023339
0.010230382
0.010226336
0.010221089
0.010214456
0.010206272
0.010196436
0.010184843
0.010171259
0.010155343
0.010136616
0.010114501
0.010095169
0.010079353
0.010065888
0.010055659
0.010051258
0.010055768
0.010073193
0.041465571
0.018026068
0.017530414
0.014442372
0.012687179
0.011848629
0.011256516
0.010947987
0.010708281
0.010560729
0.010444377
0.010360818
0.010294834
0.010243783
0.010203243
0.010171359
0.010146418
0.010126242
0.010111117
0.010099048
0.010090425
0.010084073
0.010079951
0.010077628
0.01007689
0.010077448
0.010079133
0.010081795
0.010085304
0.010089553
0.010094431
0.010099833
0.010105668
0.010111858
0.010118335
0.010125036
0.010131905
0.010138884
0.010145918
0.010152955
0.010159947
0.010166839
0.010173578
0.010180115
0.010186401
0.010192382
0.010198008
0.010203241
0.010208056
0.010212438
0.010216372
0.010219846
0.010222843
0.010225339
0.010227308
0.010228726
0.010229569
0.010229807
0.010229402
0.010228306
0.010226463
0.010223805
0.010220253
0.010215697
0.01020998
0.010202914
0.010194322
0.010184086
0.010172116
0.010158195
0.010141985
0.010123233
0.010101562
0.010083624
0.010069095
0.010056864
0.010047182
0.010042909
0.01005009
0.010061785
0.037431372
0.017863852
0.016833382
0.014016065
0.012415521
0.011669724
0.011124176
0.010848408
0.010628327
0.010494961
0.010388708
0.010312762
0.010252992
0.010207045
0.010170855
0.010142647
0.010121094
0.010103742
0.010091303
0.010081571
0.010075136
0.010070792
0.010068563
0.010067936
0.010068788
0.010070855
0.010073934
0.010077893
0.010082597
0.010087937
0.010093805
0.010100094
0.010106712
0.010113576
0.010120616
0.010127769
0.010134977
0.010142186
0.010149343
0.010156399
0.010163309
0.010170029
0.01017651
0.010182711
0.010188592
0.010194107
0.010199214
0.010203881
0.010208087
0.010211823
0.010215083
0.010217861
0.010220147
0.010221924
0.010223172
0.010223869
0.010223995
0.010223524
0.010222422
0.010220643
0.010218132
0.010214828
0.010210657
0.010205517
0.010199259
0.010191696
0.010182637
0.010171947
0.010159542
0.010145239
0.010128673
0.010109799
0.010088844
0.010072315
0.010059116
0.010048113
0.010039056
0.010035043
0.010043281
0.010051415
0.033595886
0.017875074
0.016333049
0.013624933
0.012165133
0.011503562
0.011002406
0.010756545
0.010555396
0.010435038
0.010338567
0.010269857
0.010216128
0.010175153
0.01014325
0.010118651
0.010100478
0.010085944
0.010076184
0.010068848
0.010064582
0.010062309
0.010062118
0.010063129
0.010065508
0.01006907
0.010073547
0.010078781
0.010084642
0.010091022
0.010097812
0.010104905
0.010112206
0.010119629
0.010127103
0.010134565
0.010141959
0.010149234
0.010156341
0.010163237
0.010169884
0.010176246
0.010182285
0.010187968
0.010193265
0.010198142
0.010202564
0.010206506
0.010209954
0.010212904
0.010215357
0.010217315
0.010218774
0.010219724
0.010220149
0.010220031
0.010219351
0.010218088
0.01021621
0.010213674
0.010210425
0.010206405
0.010201548
0.010195759
0.010188897
0.010180777
0.0101712
0.01016001
0.01014712
0.010132396
0.010115449
0.010096308
0.010076523
0.010061406
0.010049544
0.010039764
0.010031454
0.010027778
0.010035544
0.010041682
0.031556596
0.017988851
0.015911348
0.013266658
0.011934378
0.01134998
0.010890648
0.010672297
0.010489132
0.010380901
0.010293954
0.010232213
0.010184406
0.010148329
0.01012069
0.010099672
0.010084876
0.010073207
0.010066053
0.01006133
0.010059089
0.010059106
0.010060366
0.010063328
0.010067432
0.010072479
0.01007831
0.01008477
0.010091723
0.010099057
0.010106663
0.010114434
0.010122275
0.010130097
0.010137831
0.010145415
0.010152797
0.010159931
0.010166778
0.010173301
0.010179472
0.010185267
0.010190659
0.010195626
0.01020015
0.010204208
0.010207778
0.010210839
0.010213383
0.010215415
0.010216938
0.010217962
0.01021849
0.010218518
0.010218032
0.010217018
0.010215458
0.010213333
0.010210615
0.01020726
0.010203216
0.010198426
0.010192828
0.010186336
0.010178816
0.010170091
0.010159956
0.010148233
0.010134819
0.010119635
0.010102343
0.010082797
0.010064703
0.010051005
0.010040466
0.010031899
0.01002444
0.010021108
0.010028144
0.010032621
0.029194441
0.018141337
0.015390725
0.012938138
0.011721976
0.011208123
0.01078844
0.01059522
0.010429875
0.010332939
0.010255218
0.010200226
0.010158225
0.010126984
0.0101036
0.010086158
0.010074653
0.010066017
0.0100611
0.010059167
0.010057685
0.010061184
0.01006463
0.010069288
0.010074965
0.010081455
0.010088578
0.010096177
0.010104111
0.010112264
0.010120529
0.0101288
0.010136983
0.010144991
0.010152757
0.010160226
0.010167352
0.010174098
0.010180436
0.010186342
0.0101918
0.010196798
0.010201326
0.010205372
0.010208931
0.010211993
0.010214547
0.010216579
0.010218088
0.01021908
0.010219566
0.010219559
0.010219067
0.010218092
0.010216624
0.010214649
0.01021215
0.01020911
0.010205501
0.010201281
0.010196398
0.010190794
0.010184414
0.010177176
0.010168957
0.010159588
0.010148864
0.010136588
0.010122628
0.010106938
0.010089387
0.010069723
0.010053502
0.010041225
0.010031972
0.010024602
0.010018107
0.010015062
0.010020888
0.010023866
0.027012533
0.01826852
0.014719147
0.012636728
0.011528138
0.011078937
0.010697108
0.010526263
0.010378184
0.01029159
0.010222782
0.010174358
0.010138055
0.010111603
0.010092472
0.01007866
0.010070007
0.010064968
0.01006073
0.010063413
0.010065971
0.010069598
0.010074921
0.010081303
0.010088517
0.01009636
0.010104657
0.010113248
0.010121989
0.010130763
0.010139462
0.010147987
0.010156247
0.010164162
0.010171674
0.010178736
0.010185314
0.010191385
0.010196935
0.010201957
0.010206448
0.010210413
0.010213856
0.01021678
0.010219192
0.010221094
0.010222485
0.010223359
0.010223718
0.010223572
0.010222934
0.01022182
0.010220242
0.010218205
0.010215703
0.010212721
0.010209242
0.010205249
0.010200715
0.010195599
0.010189847
0.010183403
0.010176212
0.010168199
0.010159251
0.01014921
0.010137873
0.010125034
0.010110532
0.010094299
0.010076514
0.010057496
0.010043014
0.010032151
0.010024129
0.010017918
0.010012489
0.010009745
0.010014057
0.010015686
0.025122272
0.018355606
0.014169435
0.012360807
0.011353559
0.010962059
0.010616658
0.010465682
0.010334082
0.010257227
0.010197045
0.010155082
0.010124406
0.010102731
0.01008785
0.010077864
0.010070243
0.010070764
0.010071721
0.010074013
0.010078576
0.010084676
0.010091825
0.010099827
0.01010845
0.010117488
0.010126766
0.010136123
0.010145415
0.010154524
0.010163349
0.0101718
0.010179798
0.010187275
0.010194186
0.0102005
0.0102062
0.010211281
0.010215747
0.010219609
0.010222881
0.010225584
0.010227737
0.010229356
0.01023046
0.010231062
0.01023117
0.010230783
0.010229906
0.010228549
0.010226727
0.010224455
0.010221748
0.010218613
0.010215046
0.010211031
0.010206551
0.010201586
0.01019611
0.010190082
0.010183449
0.01017615
0.010168133
0.010159329
0.010149633
0.010138903
0.010126942
0.010113536
0.010098514
0.010081764
0.010063619
0.010046141
0.010033326
0.010023847
0.010016989
0.01001187
0.010007562
0.01000521
0.010008004
0.010008974
0.023563658
0.01842996
0.013676384
0.012110492
0.011198106
0.010857329
0.010546553
0.010413758
0.010298013
0.010230346
0.01017853
0.010142973
0.010117889
0.010101015
0.010090357
0.010084632
0.010082972
0.010083354
0.010086683
0.010092103
0.01009892
0.010106889
0.010115746
0.010125201
0.010135021
0.010144999
0.010154961
0.010164751
0.010174231
0.01018329
0.010191837
0.010199802
0.010207123
0.010213754
0.010219671
0.010224863
0.010229337
0.010233106
0.010236196
0.010238635
0.010240456
0.010241695
0.010242382
0.010242548
0.010242219
0.010241417
0.010240155
0.010238439
0.010236273
0.010233665
0.010230627
0.010227176
0.010223323
0.010219078
0.010214436
0.010209384
0.010203901
0.010197962
0.010191543
0.010184603
0.010177088
0.010168936
0.010160093
0.010150494
0.010140045
0.010128616
0.010116028
0.010102058
0.010086537
0.01006941
0.010050893
0.010035714
0.01002449
0.010016349
0.010010587
0.010006464
0.010003265
0.010001471
0.010003079
0.010003522
0.022130563
0.018430354
0.013260641
0.011884944
0.011060926
0.010765173
0.010487437
0.010371075
0.010270294
0.010211503
0.010167851
0.010138709
0.010119223
0.010107204
0.010100836
0.010098769
0.010100051
0.010104211
0.01011032
0.010118004
0.010126911
0.010136678
0.010147002
0.010157617
0.010168292
0.010178821
0.010189038
0.010198799
0.010207983
0.010216496
0.01022427
0.010231259
0.010237433
0.010242773
0.010247282
0.010250976
0.010253883
0.010256042
0.010257494
0.010258288
0.01025847
0.010258086
0.010257181
0.010255791
0.010253949
0.010251682
0.010249006
0.01024593
0.010242457
0.01023859
0.010234338
0.010229712
0.010224723
0.010219379
0.010213676
0.010207601
0.010201129
0.010194233
0.010186886
0.010179048
0.010170665
0.010161674
0.010152017
0.010141632
0.010130435
0.010118309
0.010105097
0.010090583
0.010074571
0.010057247
0.010039537
0.010026233
0.010016534
0.010009673
0.010004949
0.010001715
0.0099995254
0.0099984812
0.009999333
0.0099990074
0.020862776
0.01826138
0.012874967
0.011682732
0.010940982
0.010685273
0.01043942
0.010337803
0.010251496
0.010201423
0.010165808
0.010143129
0.010129278
0.010122164
0.01012013
0.010121954
0.010126722
0.010133708
0.010142408
0.01015233
0.010163063
0.010174274
0.010185669
0.010196986
0.010208003
0.01021853
0.010228419
0.010237551
0.010245837
0.010253215
0.010259651
0.010265134
0.01026967
0.010273277
0.010275986
0.010277839
0.010278889
0.010279191
0.010278806
0.010277793
0.010276209
0.010274109
0.010271541
0.010268547
0.010265164
0.010261417
0.010257326
0.010252898
0.010248135
0.010243034
0.010237596
0.010231828
0.010225736
0.010219326
0.010212594
0.010205526
0.010198097
0.010190275
0.010182028
0.010173318
0.010164094
0.01015429
0.010143843
0.010132693
0.010120765
0.010107952
0.010094122
0.010079103
0.010062677
0.010045072
0.010029336
0.010017757
0.010009468
0.010003811
0.010000085
0.0099976405
0.0099962684
0.0099961086
0.0099970181
0.0099961983
0.019729272
0.017812224
0.0125279
0.011503101
0.010838765
0.01061816
0.010402786
0.010314837
0.010242398
0.010201066
0.010173413
0.01015727
0.010149104
0.01014693
0.010149215
0.010154801
0.010162821
0.010172618
0.010183618
0.010195361
0.010207458
0.010219573
0.010231425
0.010242772
0.010253422
0.010263217
0.010272046
0.010279836
0.010286543
0.010292151
0.010296671
0.010300132
0.010302578
0.010304064
0.010304648
0.010304396
0.010303377
0.010301662
0.01029932
0.010296417
0.010293015
0.010289171
0.010284934
0.010280346
0.010275443
0.010270249
0.01026478
0.010259045
0.010253039
0.010246756
0.010240188
0.010233333
0.010226192
0.010218767
0.010211054
0.01020304
0.010194697
0.01018599
0.010176884
0.01016734
0.010157309
0.010146727
0.010135526
0.010123641
0.010111009
0.010097535
0.010083095
0.010067582
0.010050969
0.010033715
0.010020285
0.010010296
0.010003293
0.009998744
0.0099959792
0.0099942653
0.0099934792
0.0099941328
0.0099957653
0.0099947268
0.018715956
0.017001867
0.012217823
0.011345122
0.010753984
0.010564195
0.010378196
0.010303125
0.010244117
0.010211644
0.010191929
0.010182379
0.010179897
0.01018261
0.010189085
0.010198226
0.010209187
0.010221316
0.010234071
0.010246993
0.010259708
0.010271908
0.010283348
0.010293832
0.010303221
0.010311416
0.010318364
0.010324052
0.010328495
0.010331731
0.010333816
0.01033482
0.010334823
0.010333907
0.010332151
0.010329638
0.010326446
0.010322651
0.010318325
0.010313534
0.010308338
0.01030279
0.010296937
0.010290817
0.010284461
0.010277891
0.010271118
0.010264147
0.010256972
0.01024958
0.010241956
0.010234087
0.010225968
0.010217595
0.010208962
0.010200056
0.010190853
0.010181314
0.010171399
0.010161065
0.010150268
0.010138952
0.01012704
0.010114462
0.01010116
0.010087058
0.010072048
0.010056052
0.010039319
0.010023873
0.010012337
0.010003839
0.0099979984
0.0099944439
0.0099925798
0.0099915784
0.009991218
0.0099924067
0.0099948619
0.0099944342
0.017810139
0.016064223
0.011947437
0.011208773
0.010686237
0.010524415
0.010366739
0.010304166
0.010258146
0.010234665
0.010222833
0.010219837
0.010222908
0.010230272
0.010240574
0.010252763
0.010266018
0.010279704
0.010293304
0.010306397
0.010318659
0.010329842
0.010339772
0.010348333
0.010355465
0.01036115
0.01036541
0.010368298
0.010369888
0.010370269
0.010369537
0.010367796
0.010365146
0.010361687
0.010357512
0.010352705
0.010347347
0.010341512
0.010335265
0.010328667
0.010321769
0.010314619
0.010307255
0.010299708
0.010292003
0.010284157
0.010276179
0.010268067
0.010259813
0.0102514
0.010242805
0.010234009
0.010224994
0.01021575
0.010206267
0.010196535
0.01018653
0.010176216
0.010165546
0.010154476
0.010142961
0.010130953
0.010118381
0.010105162
0.010091232
0.010076539
0.010061018
0.010044705
0.010028195
0.010015281
0.010005469
0.0099983415
0.0099935597
0.0099908785
0.0099898089
0.0099894997
0.0099895681
0.0099911579
0.0099943979
0.0099958144
0.017000885
0.015298589
0.01171738
0.011094429
0.010636399
0.010500265
0.01036998
0.010319696
0.010286239
0.010271806
0.010267694
0.010271017
0.010279245
0.010290689
0.010304055
0.010318343
0.010332775
0.010346767
0.010359877
0.01037177
0.01038222
0.010391083
0.010398294
0.010403844
0.010407768
0.010410136
0.010411044
0.010410605
0.010408942
0.010406181
0.010402443
0.010397848
0.010392506
0.010386519
0.010379979
0.010372967
0.010365555
0.010357807
0.010349778
0.010341517
0.010333065
0.010324458
0.010315725
0.010306888
0.010297965
0.010288967
0.010279897
0.010270752
0.010261519
0.010252179
0.010242706
0.010233071
0.010223249
0.010213219
0.010202966
0.010192476
0.010181731
0.0101707
0.010159336
0.010147588
0.010135408
0.010122754
0.010109568
0.010095767
0.010081268
0.010066032
0.010050058
0.010033604
0.010018873
0.010007838
0.0099996059
0.0099937314
0.0099899268
0.0099880124
0.0099875942
0.0099879041
0.0099884922
0.0099904888
0.0099942712
0.0099971197
0.016278445
0.014614096
0.011523232
0.011002738
0.010605544
0.010493573
0.010389674
0.010351736
0.010330383
0.010324857
0.010328029
0.010337025
0.010349506
0.01036387
0.010378916
0.010393737
0.010407665
0.010420241
0.010431164
0.010440248
0.01044741
0.01045265
0.010456026
0.010457638
0.010457617
0.010456106
0.010453258
0.010449225
0.010444158
0.010438197
0.010431472
0.010424099
0.010416185
0.010407823
0.010399092
0.010390061
0.010380788
0.010371321
0.010361703
0.010351968
0.010342145
0.010332256
0.010322319
0.010312348
0.010302352
0.010292335
0.010282297
0.01027223
0.010262122
0.010251951
0.01024169
0.010231305
0.010220764
0.010210035
0.010199095
0.010187923
0.010176504
0.010164813
0.010152811
0.010140444
0.010127658
0.010114407
0.010100651
0.010086323
0.010071327
0.010055621
0.010039394
0.010023325
0.010010938
0.010001528
0.0099946663
0.0099899187
0.0099870208
0.0099857957
0.0099858836
0.0099866553
0.0099877963
0.0099902818
0.0099942988
0.0099977872
0.015635518
0.01402278
0.011363909
0.010934594
0.010594842
0.010506745
0.010428143
0.01040269
0.010392742
0.010395457
0.01040482
0.01041806
0.010433051
0.010448348
0.010462931
0.010476097
0.010487385
0.010496541
0.010503472
0.010508179
0.010510745
0.01051131
0.010510044
0.010507137
0.010502783
0.01049717
0.010490477
0.01048287
0.010474499
0.010465499
0.01045599
0.010446072
0.010435834
0.010425351
0.010414684
0.010403886
0.010392996
0.010382046
0.010371063
0.010360066
0.01034907
0.010338086
0.01032712
0.010316177
0.010305258
0.01029436
0.010283479
0.010272604
0.010261722
0.010250812
0.010239846
0.010228792
0.010217612
0.010206268
0.010194724
0.010182952
0.010170931
0.010158639
0.010146049
0.010133119
0.010119791
0.010106003
0.010091713
0.010076896
0.010061492
0.010045417
0.010029019
0.010014967
0.010004266
0.0099962801
0.0099905797
0.0099868115
0.0099847347
0.0099841396
0.0099846394
0.0099857069
0.0099872536
0.0099902254
0.0099944576
0.0099983378
0.015066004
0.013515789
0.011240885
0.010892859
0.010606238
0.010543224
0.010488353
0.010475006
0.01047496
0.010484147
0.010497454
0.010512372
0.010527108
0.010540526
0.010551926
0.010560921
0.010567342
0.010571192
0.010572598
0.010571741
0.010568846
0.010564154
0.010557907
0.010550337
0.01054166
0.010532073
0.010521748
0.010510837
0.010499471
0.010487762
0.010475804
0.010463676
0.010451442
0.010439154
0.010426852
0.010414569
0.010402327
0.010390143
0.010378027
0.010365984
0.010354016
0.010342124
0.010330302
0.010318547
0.010306853
0.010295209
0.010283608
0.010272036
0.010260478
0.010248914
0.010237321
0.010225667
0.010213916
0.010202027
0.010189958
0.010177668
0.010165123
0.010152299
0.010139174
0.010125723
0.010111904
0.010097651
0.010082892
0.010067595
0.010051824
0.010035761
0.010019978
0.010008013
0.0099987977
0.0099920137
0.0099872854
0.0099843341
0.0099829558
0.009982907
0.0099837611
0.0099850591
0.0099869078
0.0099902581
0.0099946784
0.0099987288
0.014568222
0.013085631
0.011156254
0.010882379
0.010643871
0.010606755
0.010572829
0.01056972
0.010576545
0.010588837
0.010602453
0.010615378
0.010626348
0.010634697
0.010640152
0.010642693
0.010642457
0.01063968
0.010634656
0.01062769
0.010619083
0.010609113
0.010598037
0.010586082
0.010573445
0.010560297
0.010546779
0.010533012
0.010519093
0.010505102
0.010491104
0.010477151
0.010463279
0.01044952
0.010435891
0.010422408
0.010409077
0.010395899
0.010382872
0.010369988
0.010357239
0.010344614
0.010332101
0.010319687
0.010307357
0.010295098
0.010282895
0.010270733
0.010258595
0.010246461
0.010234311
0.010222118
0.01020985
0.01019747
0.010184934
0.010172197
0.010159212
0.010145939
0.010132348
0.010118418
0.010104135
0.010089464
0.010074341
0.010058671
0.010042448
0.010026218
0.010012735
0.010002279
0.0099943815
0.0099886273
0.0099847157
0.0099824293
0.0099816026
0.0099819831
0.0099831372
0.0099846693
0.009986797
0.0099903952
0.0099949451
0.0099989835
0.014147205
0.012730701
0.011113017
0.010907734
0.010734663
0.010699414
0.010681459
0.010684366
0.010693127
0.010703649
0.010712972
0.010719796
0.010723527
0.010724033
0.010721457
0.010716089
0.010708287
0.010698426
0.010686873
0.010673964
0.010659996
0.010645228
0.010629877
0.010614128
0.010598131
0.01058201
0.010565864
0.010549773
0.010533796
0.010517982
0.010502365
0.010486969
0.010471811
0.010456898
0.010442233
0.010427814
0.010413634
0.010399681
0.010385942
0.010372403
0.010359043
0.010345846
0.01033279
0.010319855
0.010307022
0.010294271
0.010281581
0.010268935
0.010256311
0.010243693
0.010231057
0.010218383
0.010205644
0.01019281
0.010179843
0.010166702
0.010153338
0.010139701
0.01012574
0.010111416
0.010096705
0.010081601
0.010066118
0.010050283
0.010034195
0.010018472
0.010006762
0.0099976439
0.0099908474
0.0099859799
0.0099827672
0.0099810276
0.0099806164
0.0099812926
0.0099826689
0.0099844442
0.0099868771
0.0099906441
0.0099952047
0.0099991077
0.013814013
0.012451914
0.0111153
0.010967555
0.010841357
0.010818875
0.010809027
0.010811473
0.010815928
0.010819291
0.010819871
0.010817164
0.0108112
0.010802274
0.010790802
0.010777233
0.010761999
0.010745486
0.010728032
0.010709923
0.010691392
0.010672632
0.010653794
0.010635001
0.010616344
0.010597898
0.010579715
0.010561835
0.010544285
0.010527083
0.010510236
0.010493748
0.010477615
0.01046183
0.010446382
0.010431255
0.010416431
0.010401892
0.010387615
0.010373577
0.010359754
0.010346121
0.010332652
0.010319322
0.010306104
0.010292975
0.010279909
0.010266883
0.010253875
0.010240861
0.010227822
0.010214735
0.010201577
0.010188325
0.01017495
0.010161419
0.010147695
0.010133733
0.01011948
0.01010488
0.010089877
0.010074423
0.010058504
0.010042218
0.010026103
0.010012491
0.010001964
0.0099939544
0.0099880512
0.0099839196
0.0099812998
0.009980019
0.0099799277
0.0099807943
0.0099823017
0.009984274
0.0099870013
0.0099909339
0.0099954679
0.0099992189
0.013591986
0.01225115
0.011165426
0.011067294
0.010975451
0.01095487
0.010944252
0.010939172
0.010933439
0.010925293
0.010914164
0.010900179
0.010883745
0.010865344
0.010845449
0.010824485
0.010802814
0.010780731
0.010758475
0.010736231
0.010714143
0.010692321
0.010670844
0.01064977
0.01062914
0.010608979
0.010589302
0.010570115
0.010551417
0.010533202
0.010515459
0.010498173
0.010481328
0.010464904
0.010448879
0.010433229
0.01041793
0.010402955
0.010388278
0.01037387
0.010359703
0.010345747
0.010331973
0.010318351
0.010304853
0.010291448
0.010278109
0.010264807
0.010251515
0.010238208
0.010224861
0.010211449
0.01019795
0.01018434
0.010170596
0.010156693
0.010142605
0.010128299
0.010113742
0.010098891
0.010083701
0.010068126
0.010052142
0.01003586
0.010019975
0.010007811
0.0099982865
0.0099911215
0.0099859098
0.0099823501
0.0099802021
0.0099792887
0.0099794413
0.0099804463
0.0099820213
0.0099841059
0.009987016
0.009991075
0.0099956615
0.0099992767
0.013428621
0.01212847
0.011265146
0.011193297
0.011119733
0.011093519
0.011072899
0.011054433
0.011034691
0.011013059
0.010989606
0.010964694
0.010938759
0.010912202
0.010885366
0.01085852
0.010831877
0.010805594
0.010779785
0.010754532
0.010729887
0.010705885
0.010682543
0.010659868
0.010637855
0.010616496
0.010595774
0.010575673
0.01055617
0.010537242
0.010518864
0.01050101
0.010483654
0.010466767
0.010450322
0.010434288
0.010418638
0.010403339
0.010388363
0.010373678
0.010359253
0.010345057
0.010331059
0.010317225
0.010303526
0.010289928
0.010276402
0.010262914
0.010249436
0.010235937
0.010222388
0.01020876
0.010195027
0.010181161
0.010167137
0.010152931
0.010138519
0.010123876
0.010108978
0.010093799
0.010078312
0.010062496
0.010046383
0.01003026
0.010015534
0.010004332
0.0099956106
0.0099890854
0.0099843916
0.0099812549
0.0099794554
0.0099788098
0.0099791077
0.0099802288
0.0099818566
0.0099839944
0.009986903
0.0099908129
0.0099952534
0.009998962
0.013356704
0.012082345
0.011415515
0.011328691
0.011257901
0.011216698
0.011180415
0.01114616
0.011112135
0.011078071
0.011044066
0.011010325
0.010977057
0.010944435
0.010912584
0.01088159
0.010851505
0.010822358
0.010794155
0.010766891
0.010740549
0.010715105
0.010690532
0.010666798
0.010643869
0.010621712
0.01060029
0.010579571
0.010559518
0.010540097
0.010521275
0.010503019
0.010485294
0.010468069
0.010451311
0.010434989
0.010419069
0.01040352
0.010388309
0.010373405
0.010358776
0.01034439
0.010330214
0.010316216
0.010302364
0.010288625
0.010274969
0.010261361
0.01024777
0.010234163
0.010220507
0.010206772
0.010192924
0.010178933
0.010164768
0.010150398
0.010135795
0.010120932
0.010105784
0.010090329
0.010074552
0.010058458
0.010042145
0.0100261
0.010012462
0.010001933
0.0099938085
0.0099877553
0.0099834409
0.0099806067
0.009979051
0.0099785579
0.0099790027
0.0099801525
0.0099818554
0.0099840822
0.0099869997
0.0099907183
0.0099948928
0.0099986248
0.013347617
0.012054959
0.011555131
0.011449658
0.011367656
0.011309182
0.011257193
0.011209298
0.011163959
0.011120676
0.011079222
0.011039481
0.011001378
0.010964848
0.010929824
0.010896242
0.010864034
0.010833132
0.010803471
0.010774986
0.010747614
0.010721294
0.010695971
0.010671588
0.010648093
0.010625437
0.010603573
0.010582456
0.010562043
0.010542294
0.01052317
0.010504633
0.010486646
0.010469175
0.010452184
0.01043564
0.01041951
0.01040376
0.010388359
0.010373274
0.010358473
0.010343925
0.010329597
0.010315457
0.010301475
0.010287619
0.010273857
0.010260158
0.01024649
0.01023282
0.010219116
0.010205345
0.010191475
0.010177472
0.010163301
0.010148927
0.010134318
0.010119436
0.010104248
0.010088722
0.010072832
0.01005658
0.010040087
0.010023962
0.010010854
0.010000676
0.0099928683
0.0099870793
0.009982987
0.0099803361
0.0099789236
0.009978493
0.0099790111
0.0099801884
0.0099819462
0.0099842418
0.0099871483
0.0099906858
0.009994611
0.009998364
0.013407135
0.012073879
0.011654785
0.011532968
0.01143837
0.0113662
0.011303149
0.011246379
0.011194065
0.01114532
0.011099579
0.011056462
0.011015681
0.010977012
0.010940267
0.010905287
0.010871935
0.010840089
0.010809641
0.010780494
0.01075256
0.010725758
0.010700017
0.010675268
0.010651448
0.010628501
0.010606373
0.010585014
0.010564376
0.010544416
0.010525092
0.010506364
0.010488194
0.010470545
0.010453381
0.010436669
0.010420373
0.010404462
0.010388902
0.010373661
0.010358708
0.010344011
0.010329539
0.010315262
0.010301148
0.010287168
0.01027329
0.010259484
0.010245721
0.010231969
0.0102182
0.010204381
0.010190482
0.010176472
0.010162319
0.010147992
0.010133458
0.010118684
0.010103639
0.010088291
0.010072616
0.01005661
0.010040374
0.01002443
0.01001108
0.010000812
0.009992933
0.0099871103
0.0099830097
0.0099803691
0.0099789768
0.0099785612
0.0099790565
0.0099802515
0.0099820495
0.009984395
0.0099872826
0.0099906739
0.0099944083
0.0099981914
0.013503944
0.012117502
0.011703876
0.011573205
0.011470449
0.011392128
0.011324276
0.011264004
0.011209046
0.011158308
0.011111042
0.011066743
0.011025035
0.010985627
0.010948284
0.010912813
0.010879048
0.01084685
0.010816095
0.010786675
0.010758495
0.010731467
0.010705513
0.010680562
0.01065655
0.010633416
0.010611106
0.010589566
0.010568751
0.010548614
0.010529113
0.010510208
0.01049186
0.010474032
0.010456689
0.010439796
0.01042332
0.010407226
0.010391483
0.010376059
0.010360923
0.010346042
0.010331386
0.010316925
0.010302627
0.010288464
0.010274404
0.010260417
0.010246474
0.010232544
0.010218598
0.010204605
0.010190535
0.010176358
0.010162042
0.010147556
0.010132868
0.010117946
0.010102757
0.010087273
0.010071469
0.010055349
0.010039037
0.010023149
0.010010358
0.010000361
0.0099926896
0.0099869928
0.0099829678
0.0099803642
0.0099789763
0.0099785516
0.0099790529
0.0099802349
0.0099820493
0.0099844185
0.0099872978
0.0099906169
0.0099942628
0.0099980914
92.445086
453.91168
141.46553
12.292778
0.27175108
0.021624244
0.020640298
0.02002975
0.019342206
0.018161484
0.016938737
0.015871726
0.015019681
0.014456317
0.014057262
0.013684002
0.013317262
0.012987584
0.01270893
0.012475691
0.012277647
0.012106968
0.011958413
0.01182816
0.011713173
0.011610974
0.011519573
0.011437381
0.01136315