/*--------------------------------*- C++ -*----------------------------------*\
| =========                 |                                                 |
| \\      /  F ield         | OpenFOAM: The Open Source CFD Toolbox           |
|  \\    /   O peration     | Version:  2512                                  |
|   \\  /    A nd           | Website:  www.openfoam.com                      |
|    \\/     M anipulation  |                                                 |
\*---------------------------------------------------------------------------*/
FoamFile
{
    version     2.0;
    format      ascii;
    arch        "LSB;label=32;scalar=64";
    class       volScalarField;
    location    "0.146";
    object      Ma;
}
// * * * * * * * * * * * * * * * * * * * * * * * * * * * * * * * * * * * * * //

dimensions      [0 0 0 0 0 0 0];

internalField   nonuniform List<scalar> 
16000
(
0.62592133
0.74373222
0.69838686
0.72358942
0.70814829
0.71550719
0.7096349
0.71135102
0.70866545
0.70831367
0.70669521
0.7056081
0.70421443
0.7028635
0.70142304
0.69993596
0.69838868
0.69678378
0.69511993
0.69339678
0.69161402
0.68977154
0.68786948
0.68590824
0.68388854
0.68181138
0.67967818
0.6774907
0.6752511
0.67296198
0.67062635
0.66824766
0.6658298
0.66337706
0.66089417
0.65838621
0.65585864
0.65331717
0.65076781
0.64821672
0.64567019
0.64313456
0.64061612
0.63812107
0.63565539
0.63322483
0.63083479
0.62849027
0.62619585
0.62395558
0.62177301
0.61965113
0.61759239
0.61559863
0.61367111
0.61181052
0.61001694
0.60828988
0.60662827
0.60503039
0.60349388
0.60201609
0.60059401
0.59922393
0.59790128
0.59662055
0.59537529
0.59415856
0.59296351
0.59178353
0.59061152
0.58943879
0.58825525
0.58705235
0.58582634
0.584583
0.5832394
0.58222238
0.58007501
0.58007977
0.63038171
0.7489404
0.70175751
0.72824427
0.71195308
0.71980588
0.71346192
0.71531331
0.71243626
0.71201601
0.71030956
0.70910551
0.7076213
0.70615496
0.7046059
0.70300149
0.70133454
0.69960554
0.69781393
0.69595938
0.69404185
0.69206151
0.69001884
0.68791464
0.68575005
0.68352661
0.68124625
0.67891134
0.67652469
0.67408958
0.67160976
0.66908943
0.66653325
0.66394632
0.66133416
0.65870262
0.65605788
0.65340639
0.65075476
0.6481097
0.64547795
0.64286618
0.64028092
0.63772843
0.63521469
0.63274525
0.63032522
0.62795921
0.62565128
0.62340488
0.62122291
0.61910763
0.61706072
0.61508328
0.61317582
0.61133828
0.60957005
0.60786998
0.60623641
0.60466712
0.60315931
0.60170985
0.60031542
0.59897211
0.59767523
0.59641921
0.59519749
0.59400294
0.59282842
0.59166712
0.59051195
0.58935429
0.58818396
0.58699217
0.58577369
0.58452173
0.58324933
0.58202135
0.58032302
0.57975665
0.6345827
0.75370539
0.70528642
0.73227387
0.71555391
0.72349299
0.71700387
0.71873077
0.71580618
0.7152228
0.71345062
0.7121056
0.71051715
0.70892242
0.70724802
0.70551151
0.70370866
0.70183958
0.69990399
0.69790188
0.69583354
0.69369953
0.69150076
0.68923852
0.68691453
0.68453091
0.68209028
0.67959574
0.6770509
0.67445988
0.67182732
0.66915835
0.6664586
0.66373411
0.66099133
0.65823702
0.65547822
0.65272213
0.64997603
0.64724717
0.64454271
0.64186957
0.63923438
0.63664336
0.63410224
0.63161622
0.6291899
0.62682724
0.62453153
0.62230542
0.62015089
0.61806926
0.61606126
0.61412701
0.61226612
0.61047762
0.60876008
0.60711158
0.60552978
0.60401187
0.60255451
0.60115414
0.59980707
0.59850911
0.59725548
0.59604051
0.59485762
0.59369958
0.59255906
0.59142913
0.59030273
0.5891715
0.58802545
0.58685518
0.58565407
0.58442029
0.58317286
0.58187531
0.58037146
0.5795533
0.63838855
0.75803528
0.70831989
0.7357351
0.71866068
0.72671244
0.72006004
0.72165478
0.71866828
0.71790719
0.7160549
0.71455438
0.71284483
0.71110672
0.70929071
0.70740644
0.70545214
0.7034277
0.70133322
0.69916901
0.69693575
0.69463442
0.69226647
0.68983377
0.68733868
0.68478411
0.6821735
0.67951086
0.6768008
0.67404849
0.67125966
0.66844055
0.6655979
0.66273886
0.65987093
0.65700185
0.65413952
0.65129189
0.64846684
0.64567207
0.64291497
0.64020254
0.63754126
0.63493704
0.63239512
0.62992004
0.62751559
0.62518481
0.62292998
0.62075266
0.61865369
0.61663327
0.614691
0.61282591
0.61103656
0.60932104
0.60767701
0.60610178
0.6045923
0.60314518
0.60175657
0.6004225
0.5991389
0.59790142
0.59670514
0.59554442
0.5944127
0.5933027
0.59220697
0.59111845
0.59003016
0.5889341
0.58782046
0.58667909
0.58550339
0.58429614
0.58306548
0.58175759
0.58038562
0.57937662
0.64179631
0.76186963
0.71107151
0.73866958
0.72115144
0.72935715
0.72259665
0.72399646
0.72096708
0.7199941
0.71805276
0.7163793
0.71453069
0.71263422
0.71065998
0.70861232
0.70649071
0.70429511
0.70202591
0.69968376
0.69726979
0.69478558
0.69223322
0.68961539
0.68693537
0.68419706
0.68140504
0.6785645
0.67568133
0.672762
0.66981359
0.66684367
0.66386028
0.6608718
0.65788687
0.65491423
0.65196262
0.64904064
0.64615664
0.64331851
0.64053367
0.63780888
0.63515015
0.63256275
0.63005106
0.62761861
0.62526805
0.62300117
0.62081895
0.6187216
0.61670862
0.6147789
0.61293076
0.61116205
0.60947021
0.60785233
0.60630518
0.60482528
0.6034089
0.60205208
0.60075056
0.59949997
0.59829596
0.597134
0.59600915
0.59491582
0.59384756
0.59279714
0.59175706
0.59072018
0.58967966
0.58862792
0.5875553
0.58645135
0.58531045
0.58413673
0.58292711
0.58163938
0.58034585
0.57922567
0.64477127
0.76513516
0.71336347
0.74112576
0.72332445
0.73136056
0.72448078
0.72569268
0.72261161
0.72142036
0.71937924
0.71752231
0.71551859
0.71345071
0.71130262
0.70907556
0.70676965
0.70438518
0.70192297
0.6993843
0.69677106
0.69408568
0.6913313
0.68851174
0.68563154
0.68269599
0.67971111
0.67668365
0.67362106
0.67053142
0.66742338
0.66430606
0.66118891
0.65808161
0.65499391
0.65193549
0.64891578
0.64594379
0.64302802
0.64017626
0.63739552
0.6346919
0.63207055
0.62953559
0.62709015
0.62473633
0.62247526
0.62030717
0.61823146
0.61624675
0.61435105
0.61254178
0.61081593
0.60917013
0.60760069
0.60610375
0.60467522
0.60331091
0.6020065
0.60075755
0.59955944
0.59840753
0.59729727
0.59622404
0.59518292
0.59416846
0.59317442
0.59219371
0.59121887
0.59024272
0.58925861
0.58825934
0.58723551
0.58617685
0.58507881
0.58394423
0.58276363
0.58151382
0.58028299
0.5790776
0.64730108
0.767824
0.71521527
0.74308045
0.72502958
0.7327004
0.72589261
0.72672627
0.72366295
0.72217391
0.72001469
0.71796229
0.71578234
0.71352357
0.71117903
0.70874907
0.70623445
0.70363624
0.70095614
0.69819643
0.69536012
0.69245096
0.68947349
0.68643307
0.68333591
0.68018906
0.6770004
0.67377856
0.67053288
0.66727329
0.66401023
0.66075443
0.65751684
0.65430837
0.65113975
0.64802132
0.64496287
0.64197346
0.63906126
0.63623344
0.63349606
0.63085401
0.628311
0.62586954
0.62353097
0.62129556
0.61916255
0.61713032
0.61519641
0.61335776
0.61161074
0.6099513
0.60837508
0.60687752
0.60545392
0.60409953
0.60280954
0.60157917
0.60040363
0.59927814
0.59819785
0.59715795
0.59615382
0.59518081
0.59423413
0.59330856
0.59239814
0.59149604
0.59059492
0.58968766
0.58876779
0.58782845
0.58686065
0.58585485
0.58480711
0.58371714
0.58257325
0.58137394
0.58019783
0.57893008
0.64942347
0.76996251
0.71665887
0.74457097
0.7263165
0.73369201
0.72676163
0.72751611
0.7240008
0.72226451
0.71995258
0.71767774
0.71528629
0.71280422
0.71022986
0.70756394
0.70480807
0.70196437
0.6990357
0.69602569
0.69293888
0.68978069
0.6865575
0.68327668
0.67994655
0.67657634
0.67317619
0.66975695
0.66633014
0.66290775
0.65950208
0.65612549
0.65279027
0.64950831
0.64629097
0.64314881
0.64009144
0.63712731
0.63426361
0.63150618
0.62885944
0.6263264
0.6239087
0.62160665
0.61941935
0.61734483
0.61538015
0.6135216
0.6117648
0.61010489
0.60853664
0.6070546
0.60565317
0.60432675
0.60306978
0.60187679
0.60074243
0.59966152
0.59862896
0.59763979
0.5966891
0.59577204
0.59488401
0.59402051
0.59317692
0.59234833
0.59152916
0.59071294
0.58989257
0.58906105
0.58821209
0.58733909
0.58643369
0.58548753
0.58449655
0.58345618
0.5823565
0.5812179
0.58009405
0.57877764
0.65119819
0.7715703
0.71763149
0.7455832
0.72690659
0.73360565
0.72681062
0.72675815
0.72369872
0.72163245
0.71911844
0.71658548
0.71394062
0.71119641
0.70835359
0.70541393
0.70238002
0.69925535
0.69604438
0.69275255
0.6893864
0.68595359
0.68246292
0.67892431
0.67534872
0.67174807
0.66813513
0.66452332
0.66092652
0.65735882
0.65383432
0.65036678
0.64696944
0.64365469
0.64043384
0.63731693
0.63431255
0.63142767
0.6286676
0.62603598
0.62353477
0.62116436
0.61892368
0.61681032
0.61482077
0.61295051
0.61119429
0.60954623
0.60800004
0.60654919
0.60518699
0.60390677
0.60270192
0.60156604
0.60049293
0.59947666
0.59851156
0.59759224
0.59671353
0.59587046
0.59505819
0.59427203
0.59350754
0.59276041
0.59202632
0.59130074
0.59057855
0.58985375
0.58911958
0.58836927
0.58759661
0.58679524
0.58595767
0.58507704
0.58414822
0.58316192
0.58211399
0.58104478
0.57997094
0.57861885
0.65261087
0.77261318
0.71805972
0.74585679
0.72677588
0.73307673
0.72634694
0.72584714
0.72256971
0.72015657
0.7173915
0.71456439
0.71162341
0.70857528
0.70542222
0.70216761
0.69881572
0.69537202
0.69184322
0.68823728
0.68456351
0.68083254
0.67705632
0.67324795
0.66942165
0.66559249
0.66177623
0.657989
0.65424706
0.65056644
0.64696262
0.64345022
0.64004266
0.6367519
0.63358821
0.63055996
0.62767357
0.62493339
0.6223418
0.61989924
0.61760441
0.61545438
0.61344485
0.61157037
0.60982456
0.60820034
0.60669015
0.6052861
0.60398022
0.60276452
0.60163119
0.60057263
0.59958155
0.59865105
0.59777459
0.59694606
0.59615974
0.59541025
0.59469257
0.5940019
0.59333367
0.59268344
0.59204708
0.59142059
0.59080001
0.59018126
0.58955974
0.58893001
0.58828579
0.58762058
0.5869282
0.58620247
0.58543712
0.58462678
0.58376426
0.58283593
0.58184663
0.58085282
0.57982746
0.57845428
0.6535966
0.77298004
0.71786995
0.74461457
0.72590413
0.73160359
0.72501364
0.72388973
0.720523
0.71772726
0.7146534
0.71148668
0.70820001
0.70479934
0.70128833
0.69767268
0.69395912
0.69015594
0.68627302
0.68232178
0.67831524
0.67426791
0.67019567
0.66611556
0.66204556
0.65800424
0.65401048
0.65008305
0.64624018
0.64249922
0.63887616
0.63538534
0.6320391
0.62884752
0.62581832
0.62295676
0.62026564
0.61774545
0.61539453
0.61320925
0.61118433
0.60931312
0.60758784
0.60599991
0.60454018
0.6031992
0.60196739
0.60083524
0.59979346
0.59883306
0.59794549
0.59712264
0.59635693
0.5956413
0.59496922
0.59433469
0.59373217
0.59315658
0.59260321
0.59206764
0.59154568
0.59103333
0.59052684
0.59002262
0.58951713
0.58900677
0.58848753
0.58795458
0.58740226
0.58682441
0.58621481
0.58556746
0.58487752
0.58414092
0.58334755
0.58248072
0.58155649
0.58064066
0.57966043
0.5782845
0.65407384
0.77252805
0.71695865
0.74278779
0.7244855
0.72926798
0.7227445
0.72102473
0.71742458
0.71420927
0.71076156
0.70719981
0.70351044
0.69970136
0.69577868
0.69175129
0.68762956
0.68342584
0.67915439
0.67483132
0.6704745
0.66610329
0.66173835
0.65740122
0.65311396
0.64889869
0.64477707
0.64076979
0.63689607
0.63317317
0.62961597
0.62623668
0.62304458
0.62004596
0.61724411
0.61463948
0.61222985
0.61001069
0.6079754
0.60611577
0.60442226
0.60288441
0.60149112
0.600231
0.59909255
0.59806444
0.59713561
0.59629548
0.59553399
0.59484167
0.59420972
0.59362999
0.59309501
0.59259794
0.59213257
0.5916933
0.59127503
0.59087316
0.59048349
0.5901021
0.58972535
0.58934976
0.58897208
0.58858917
0.58819796
0.58779537
0.58737797
0.58694163
0.58648139
0.58599147
0.58546561
0.5848981
0.58428558
0.58362463
0.58290193
0.58209998
0.5812471
0.5804093
0.57946773
0.57810992
0.65399202
0.77118908
0.71520278
0.74015211
0.72212197
0.72589797
0.71943313
0.71703319
0.71312991
0.70944253
0.70554698
0.70152278
0.697364
0.69308243
0.68868822
0.68419496
0.67961832
0.67497629
0.67028907
0.66557884
0.66086948
0.65618616
0.65155488
0.64700191
0.64255318
0.63823359
0.63406638
0.63007246
0.62626991
0.6226735
0.61929442
0.61614015
0.61321446
0.61051761
0.60804659
0.60579554
0.60375616
0.60191817
0.60026979
0.59879817
0.5974898
0.59633088
0.59530759
0.59440638
0.59361417
0.59291846
0.59230745
0.59177015
0.59129637
0.59087673
0.59050269
0.59016652
0.58986123
0.58958056
0.58931891
0.58907129
0.58883328
0.58860091
0.58837063
0.58813917
0.58790348
0.58766071
0.58740815
0.58714319
0.58686325
0.58656574
0.58624783
0.58590614
0.58553644
0.58513338
0.58469076
0.58420334
0.58366894
0.58308396
0.58243219
0.58169854
0.58092306
0.58016121
0.57924843
0.57793616
0.65333014
0.76886013
0.71254162
0.73645937
0.71873761
0.72139806
0.71490579
0.71178224
0.70745859
0.70322801
0.69879818
0.6942305
0.6895253
0.68470009
0.67977135
0.67475949
0.66968747
0.66458085
0.65946745
0.65437691
0.64934014
0.64438862
0.63955365
0.63486549
0.63035246
0.62604012
0.62195052
0.61810163
0.61450693
0.61117525
0.60811079
0.60531335
0.60277875
0.60049926
0.59846426
0.59666076
0.59507408
0.59368832
0.59248694
0.59145317
0.59057038
0.58982238
0.58919362
0.58866941
0.58823595
0.5878805
0.5875913
0.58735766
0.58716989
0.58701925
0.58689793
0.58679899
0.58671629
0.58664439
0.58657853
0.58651456
0.58644882
0.58637813
0.58629968
0.5862109
0.5861094
0.58599302
0.58585963
0.58570715
0.5855335
0.5853366
0.58511416
0.58486354
0.58458124
0.58426243
0.5839012
0.58349296
0.58303616
0.58252587
0.5819442
0.58128227
0.58058928
0.57989912
0.57900799
0.57775788
0.65201545
0.76535576
0.70893547
0.73156546
0.714165
0.71558102
0.70896116
0.70504338
0.70017356
0.69530638
0.69024232
0.6850381
0.67970243
0.67426102
0.6687395
0.66316765
0.6575781
0.65200602
0.64648848
0.6410636
0.63576956
0.63064347
0.62572021
0.62103129
0.61660382
0.61245973
0.60861526
0.60508076
0.6018607
0.59895405
0.59635479
0.59405263
0.59203374
0.59028156
0.58877757
0.58750203
0.58643457
0.58555475
0.5848425
0.58427843
0.58384414
0.58352233
0.58329696
0.58315328
0.58307784
0.58305847
0.58308425
0.58314542
0.58323333
0.58334035
0.58345977
0.58358573
0.58371318
0.58383771
0.58395557
0.58406349
0.58415874
0.58423895
0.58430208
0.5843463
0.58436994
0.58437149
0.58434942
0.58430222
0.58422829
0.584126
0.58399362
0.58382914
0.58362976
0.58339123
0.58310833
0.58277728
0.5823963
0.58195809
0.581445
0.58085807
0.58025139
0.57962625
0.57875017
0.57758072
0.64998687
0.76043004
0.70447873
0.72529618
0.70822752
0.7082296
0.70133264
0.69652822
0.69096198
0.68534123
0.67953078
0.67359106
0.66754291
0.6614232
0.65526995
0.64912532
0.64303415
0.63704311
0.63119933
0.62554888
0.62013523
0.61499757
0.61016955
0.60567811
0.60154283
0.59777567
0.59438112
0.59135665
0.58869355
0.58637783
0.58439129
0.58271257
0.5813182
0.58018341
0.57928304
0.5785921
0.57808631
0.5777425
0.57753887
0.57745514
0.5774727
0.57757457
0.57774544
0.57797157
0.57824076
0.57854219
0.57886637
0.57920501
0.5795509
0.57989781
0.58024039
0.5805741
0.58089505
0.58120001
0.58148626
0.58175153
0.58199399
0.58221209
0.58240457
0.58257034
0.58270842
0.58281794
0.58289797
0.58294753
0.58296552
0.58295074
0.58290194
0.58281764
0.5826956
0.58253231
0.58232362
0.58206669
0.58175861
0.58138906
0.58094272
0.58043329
0.57991511
0.57934886
0.57848427
0.57740801
0.64718232
0.75371487
0.69885413
0.71739524
0.70060666
0.69901056
0.69164429
0.68583129
0.6794058
0.6729017
0.66623207
0.6594665
0.6526429
0.6458137
0.63903341
0.63235992
0.62585218
0.61956823
0.61356293
0.60788574
0.60257879
0.59767542
0.59319927
0.58916401
0.58557359
0.58242304
0.57969959
0.57738401
0.5754521
0.57387604
0.57262578
0.57167017
0.57097793
0.57051845
0.57026235
0.57018193
0.57025142
0.57044714
0.57074758
0.57113333
0.57158707
0.57209345
0.57263893
0.57321167
0.57380137
0.57439914
0.57499735
0.57558946
0.57616997
0.57673423
0.57727837
0.57779919
0.57829409
0.57876096
0.57919816
0.57960437
0.57997864
0.58032023
0.58062859
0.58090333
0.58114414
0.58135072
0.58152272
0.58165969
0.58176098
0.58182584
0.58185342
0.58184262
0.58179164
0.5816978
0.58155835
0.58137134
0.58113217
0.58082761
0.5804465
0.58001539
0.57958454
0.57907359
0.57822595
0.57723304
0.6434884
0.74466275
0.69161786
0.70743262
0.69086384
0.68745686
0.67939323
0.67243476
0.66498538
0.6574689
0.64984205
0.64219019
0.63457558
0.62707208
0.61975442
0.61269697
0.6059701
0.59963709
0.59375142
0.58835472
0.58347559
0.57912935
0.57531857
0.57203429
0.56925773
0.56696219
0.56511513
0.56368002
0.56261814
0.56189007
0.56145681
0.56128079
0.56132644
0.56156069
0.56195319
0.56247641
0.56310562
0.56381882
0.5645966
0.56542194
0.56628003
0.56715807
0.56804505
0.5689316
0.56980975
0.57067283
0.57151525
0.57233242
0.57312057
0.57387666
0.57459832
0.57528367
0.57593133
0.5765403
0.5771099
0.57763976
0.57812971
0.57857974
0.57898998
0.57936064
0.57969201
0.57998434
0.58023778
0.58045237
0.58062793
0.58076414
0.58086049
0.58091613
0.5809296
0.58089907
0.58082325
0.58070088
0.5805256
0.5802825
0.57996583
0.57961187
0.57926187
0.57880165
0.57798143
0.57706334
0.63865695
0.73306295
0.68224345
0.69484225
0.67841225
0.67299464
0.66396324
0.65570439
0.64707302
0.63843525
0.62979946
0.62127624
0.61295887
0.60494506
0.59732659
0.59018588
0.58359181
0.57759694
0.57223601
0.56752575
0.56346591
0.56004121
0.5572239
0.5549766
0.55325513
0.55201116
0.55119449
0.55075493
0.55064377
0.55081479
0.55122501
0.55183502
0.55260922
0.55351579
0.55452654
0.55561676
0.55676493
0.55795244
0.55916331
0.56038393
0.56160275
0.56281009
0.56399785
0.56515935
0.56628912
0.56738275
0.56843673
0.56944834
0.57041552
0.57133677
0.57221107
0.5730378
0.57381669
0.57454772
0.57523113
0.57586733
0.57645687
0.5770004
0.57749863
0.57795229
0.57836219
0.57872903
0.57905343
0.57933587
0.57957663
0.5797758
0.57993318
0.58004811
0.5801194
0.58014604
0.58012792
0.58006405
0.57994676
0.57976159
0.57950909
0.57922991
0.57894995
0.57853156
0.57774765
0.57692073
0.63231481
0.72005017
0.67023282
0.6790008
0.66251378
0.6548871
0.64457183
0.63484453
0.62491564
0.61513041
0.60556067
0.59634711
0.58760976
0.57945852
0.57198355
0.56525221
0.5593069
0.5541652
0.54982172
0.54625124
0.54341265
0.54125312
0.53971218
0.53872532
0.53822706
0.53815325
0.53844283
0.53903899
0.53988979
0.5409485
0.54217359
0.54352856
0.54498163
0.54650533
0.54807615
0.54967408
0.55128221
0.55288635
0.55447469
0.55603749
0.55756676
0.55905606
0.56050025
0.56189533
0.56323821
0.56452664
0.56575904
0.5669344
0.5680522
0.56911231
0.57011494
0.57106056
0.57194985
0.57278369
0.57356306
0.57428906
0.57496286
0.57558565
0.57615863
0.57668301
0.57715997
0.57759063
0.57797599
0.5783169
0.57861408
0.578868
0.57907878
0.57924596
0.5793687
0.57944668
0.5794804
0.57946847
0.57940267
0.57927142
0.5790822
0.5788748
0.57865418
0.57826743
0.57752587
0.57680884
0.62410624
0.7030072
0.65477249
0.65902398
0.6421229
0.63208388
0.62019756
0.60890832
0.59772435
0.58698343
0.57681558
0.56737637
0.55878493
0.55112954
0.54446239
0.53880085
0.53413064
0.53041095
0.52758058
0.52556422
0.52427827
0.52363594
0.5235512
0.52394169
0.52473074
0.52584848
0.52723239
0.5288273
0.53058517
0.53246456
0.53443008
0.53645171
0.53850423
0.54056657
0.54262127
0.54465397
0.54665297
0.54860883
0.55051403
0.55236267
0.55415024
0.55587335
0.55752962
0.55911744
0.5606359
0.56208465
0.56346377
0.56477377
0.56601542
0.56718978
0.56829807
0.56934169
0.57032213
0.57124098
0.57209987
0.57290047
0.57364444
0.57433341
0.57496902
0.57555283
0.57608635
0.57657101
0.57700811
0.57739884
0.57774425
0.57804518
0.57830203
0.57851468
0.5786828
0.57880663
0.57888665
0.57892047
0.57889984
0.57881782
0.57868902
0.57854919
0.57838038
0.57801972
0.57732639
0.57673648
0.61340138
0.6810031
0.63444548
0.63352431
0.61578593
0.60322848
0.58970598
0.57703595
0.56498766
0.55387134
0.5438307
0.53498814
0.52740792
0.52110579
0.51605243
0.51218253
0.5094043
0.50760913
0.50668021
0.50649958
0.50695335
0.50793528
0.50934889
0.51110838
0.51313879
0.51537552
0.51776356
0.52025656
0.52281579
0.52540914
0.52801022
0.5305975
0.53315357
0.53566447
0.53811914
0.54050896
0.5428273
0.54506923
0.54723121
0.54931082
0.5513066
0.55321787
0.55504459
0.55678724
0.55844669
0.56002419
0.56152122
0.56293951
0.56428091
0.56554742
0.56674111
0.56786409
0.56891853
0.56990658
0.5708304
0.5716921
0.57249374
0.57323732
0.57392479
0.57455802
0.57513877
0.57566871
0.57614937
0.5765822
0.57696851
0.57730939
0.57760553
0.57785726
0.57806491
0.57822924
0.57835035
0.57842467
0.57844438
0.57840731
0.57833338
0.57825247
0.57812929
0.57780337
0.57717717
0.57668905
0.5990414
0.65196197
0.60738931
0.60078057
0.58193051
0.56698973
0.55226349
0.53892912
0.52694349
0.51652898
0.50775621
0.50063941
0.49512369
0.4911049
0.48844369
0.48698109
0.48655143
0.48699236
0.48815172
0.48989165
0.49209055
0.49464332
0.49746069
0.50046785
0.50360282
0.50681478
0.51006239
0.51331236
0.51653807
0.51971846
0.52283703
0.52588106
0.52884087
0.5317093
0.53448123
0.53715318
0.53972303
0.54218971
0.54455307
0.5468136
0.54897239
0.55103097
0.55299118
0.55485517
0.55662527
0.55830397
0.55989387
0.56139764
0.56281798
0.56415762
0.56541928
0.56660565
0.5677194
0.56876312
0.56973937
0.57065061
0.57149921
0.57228746
0.57301756
0.57369161
0.57431157
0.57487929
0.57539649
0.57586478
0.57628566
0.57666036
0.57698983
0.57727485
0.57751644
0.57771581
0.5778727
0.57798292
0.57803986
0.57804532
0.57802068
0.57798723
0.57789929
0.5776137
0.57707312
0.57666849
0.57915261
0.61357779
0.57145022
0.55905905
0.53961619
0.52271574
0.50795174
0.495387
0.48498445
0.47678538
0.47068593
0.46652097
0.46407414
0.46310776
0.46338183
0.464669
0.46676343
0.469485
0.47268024
0.47622107
0.48000235
0.48393893
0.48796263
0.49201943
0.4960669
0.50007212
0.50400975
0.50786063
0.51161046
0.51524887
0.51876858
0.52216476
0.52543454
0.52857654
0.53159063
0.53447756
0.53723885
0.53987657
0.5423932
0.54479156
0.54707469
0.54924582
0.55130826
0.55326543
0.55512075
0.55687765
0.55853957
0.56010989
0.56159194
0.56298899
0.56430426
0.56554085
0.5667018
0.56779004
0.56880843
0.56975968
0.5706464
0.57147111
0.57223619
0.57294391
0.5735964
0.57419565
0.57474354
0.5752418
0.575692
0.57609548
0.57645336
0.5767668
0.57703732
0.57726631
0.57745335
0.57759459
0.57768577
0.57773204
0.57775322
0.57775967
0.57769787
0.57744672
0.57699378
0.57671721
0.55119623
0.56341545
0.52534032
0.50706411
0.48651598
0.47118841
0.45835615
0.44863007
0.44173536
0.4374247
0.43534476
0.43512834
0.43641575
0.43888056
0.44223932
0.44625474
0.45073329
0.45552045
0.4604948
0.46556227
0.47065085
0.47570605
0.48068717
0.48556427
0.49031574
0.49492641
0.49938605
0.50368823
0.5078294
0.51180824
0.51562506
0.51928144
0.52277988
0.52612356
0.52931617
0.53236172
0.53526447
0.53802881
0.54065924
0.54316024
0.54553633
0.54779195
0.5499315
0.55195928
0.55387953
0.55569636
0.55741377
0.55903568
0.56056585
0.56200796
0.56336555
0.56464202
0.56584069
0.56696473
0.56801718
0.56900096
0.56991885
0.57077352
0.57156752
0.57230323
0.57298292
0.57360871
0.57418258
0.57470636
0.5751817
0.57560999
0.57599252
0.57633067
0.5766261
0.57688011
0.57709215
0.57725934
0.57738028
0.57746279
0.57752391
0.57756525
0.57753217
0.57732745
0.57696398
0.57676221
0.51109851
0.49888208
0.46182137
0.44409502
0.42682987
0.41479387
0.40664581
0.40217342
0.40070809
0.40166068
0.4044598
0.40861956
0.41374004
0.41950584
0.42567449
0.43206361
0.43853832
0.4450004
0.45137948
0.45762606
0.46370612
0.46959712
0.47528492
0.48076156
0.48602354
0.49107058
0.49590473
0.50052965
0.50495012
0.5091717
0.5132004
0.51704254
0.52070455
0.52419291
0.52751405
0.5306743
0.53367987
0.5365368
0.53925095
0.54182801
0.54427347
0.54659266
0.54879068
0.55087248
0.55284282
0.55470628
0.55646726
0.55813001
0.55969862
0.561177
0.56256892
0.56387802
0.56510775
0.56626146
0.56734233
0.56835341
0.5692976
0.57017767
0.57099628
0.57175593
0.57245897
0.57310762
0.57370398
0.57424996
0.57474726
0.5751974
0.57560179
0.57596197
0.57627953
0.57655547
0.57678917
0.57697886
0.57712532
0.57723701
0.57732694
0.57739114
0.57738183
0.57722972
0.57696617
0.57685994
0.45009051
0.41760927
0.38807816
0.37338096
0.36268545
0.35804373
0.35761479
0.36048198
0.3656484
0.37235769
0.38002791
0.38823875
0.39669336
0.40518758
0.41358403
0.42179255
0.42975604
0.43744019
0.44482638
0.45190665
0.4586802
0.46515102
0.47132614
0.47721454
0.48282631
0.48817212
0.49326284
0.4981093
0.50272212
0.50711161
0.5112877
0.51525991
0.51903734
0.52262867
0.52604217
0.52928571
0.53236676
0.53529244
0.53806953
0.54070447
0.54320343
0.54557225
0.54781652
0.54994159
0.55195255
0.55385428
0.55565144
0.55734848
0.55894968
0.56045913
0.56188073
0.56321823
0.56447522
0.56565512
0.56676123
0.56779665
0.56876436
0.56966721
0.57050794
0.57128909
0.57201312
0.57268231
0.57329884
0.57386468
0.57438165
0.57485138
0.57527545
0.57565547
0.57599294
0.57628865
0.57654229
0.57675317
0.57692322
0.57705958
0.57717029
0.57724871
0.57725922
0.57715998
0.57698711
0.57692348
0.35513303
0.32152144
0.3040468
0.29970774
0.30120164
0.30756451
0.31680059
0.32765403
0.33925474
0.35105734
0.36272982
0.37407905
0.38499922
0.39543857
0.40537828
0.41481927
0.42377392
0.43226096
0.44030231
0.44792108
0.4551405
0.46198312
0.46847051
0.47462304
0.4804598
0.4859986
0.49125602
0.49624747
0.50098727
0.50548872
0.5097642
0.51382522
0.51768253
0.52134617
0.52482551
0.52812935
0.53126595
0.53424307
0.53706803
0.53974773
0.5422887
0.54469713
0.54697889
0.54913952
0.55118435
0.55311839
0.55494647
0.55667316
0.55830283
0.55983966
0.56128765
0.5626506
0.56393216
0.56513582
0.5662649
0.56732256
0.56831182
0.56923558
0.57009659
0.57089745
0.57164066
0.57232856
0.57296335
0.57354708
0.57408165
0.57456881
0.57501027
0.57540766
0.5757624
0.57607536
0.57634672
0.57657684
0.57676795
0.57692498
0.57705188
0.57714248
0.57717465
0.57712691
0.57702636
0.57698716
0.21636481
0.21507404
0.22054533
0.23404997
0.2513935
0.26980468
0.28807076
0.30555401
0.32202796
0.33743166
0.3517915
0.36516867
0.37763732
0.38927294
0.40014742
0.41032684
0.41987096
0.4288333
0.43726159
0.44519833
0.45268143
0.45974467
0.4664183
0.4727294
0.47870235
0.48435913
0.48971963
0.49480189
0.49962237
0.50419607
0.50853677
0.51265711
0.51656876
0.52028252
0.52380838
0.52715567
0.53033307
0.53334869
0.53621014
0.53892458
0.54149874
0.54393898
0.54625129
0.54844137
0.55051461
0.55247614
0.55433084
0.55608334
0.55773808
0.55929926
0.56077093
0.56215691
0.56346089
0.56468637
0.5658367
0.56691506
0.56792448
0.56886786
0.56974799
0.57056748
0.57132884
0.57203441
0.57268643
0.57328697
0.57383796
0.57434126
0.5747986
0.5752116
0.57558165
0.57590973
0.57619656
0.57644313
0.57665146
0.57682448
0.57696373
0.5770651
0.57711732
0.57711203
0.5770664
0.57703724
0.091783343
0.121793
0.15926203
0.19296072
0.22310893
0.24964243
0.27318253
0.29419787
0.31310587
0.33023361
0.34584472
0.3601503
0.37332163
0.38549888
0.39679793
0.40731549
0.41713299
0.42631957
0.43493439
0.44302845
0.45064597
0.45782558
0.46460119
0.47100275
0.47705684
0.4827872
0.48821506
0.49335959
0.49823807
0.50286623
0.50725838
0.51142762
0.515386
0.51914457
0.52271361
0.5261026
0.52932039
0.53237522
0.53527481
0.53802638
0.54063674
0.54311229
0.54545909
0.54768285
0.549789
0.55178269
0.55366881
0.55545201
0.55713675
0.55872723
0.56022751
0.56164143
0.56297267
0.56422474
0.56540101
0.56650466
0.56753871
0.56850608
0.56940956
0.57025175
0.57103515
0.57176212
0.57243487
0.57305548
0.57362588
0.57414793
0.57462337
0.57505378
0.57544048
0.57578452
0.57608689
0.57634883
0.5765721
0.57675846
0.57690819
0.57701869
0.57708526
0.57710634
0.57709159
0.57706577
0.012364294
0.2849465
0.46707485
0.51778741
0.52751656
0.52753876
0.52754694
0.52916221
0.53105774
0.5328741
0.53456048
0.53620983
0.53776347
0.53928887
0.54079371
0.5422894
0.54377611
0.54525632
0.54673203
0.54820387
0.54967186
0.55113562
0.55259452
0.55404767
0.55549398
0.55693222
0.55836105
0.55977903
0.56118466
0.56257641
0.56395268
0.56531186
0.56665229
0.56797229
0.56927018
0.57054423
0.5717927
0.57301382
0.57420581
0.57536686
0.57649516
0.57758886
0.57864613
0.57966509
0.58064388
0.58158064
0.58247351
0.58332068
0.58412035
0.58487079
0.58557037
0.58621749
0.58681069
0.58734864
0.58783015
0.58825418
0.58861996
0.58892683
0.58917444
0.58936239
0.58949008
0.58955721
0.58956387
0.58951014
0.58939532
0.58921897
0.58897736
0.58867265
0.58829158
0.58785687
0.58731494
0.58677035
0.58600896
0.58540394
0.5842983
0.5838041
0.58217578
0.58191306
0.57982145
0.57959341
0.04721137
0.36929152
0.52247834
0.54940676
0.54952098
0.5469812
0.54621482
0.54649137
0.54673047
0.54702967
0.54742911
0.54797991
0.54864314
0.54938872
0.55019129
0.55104666
0.55194987
0.55289835
0.55388792
0.55491404
0.5559726
0.5570597
0.55817156
0.55930453
0.56045508
0.56161976
0.56279525
0.56397831
0.56516581
0.56635469
0.56754199
0.56872484
0.56990044
0.57106603
0.57221896
0.57335659
0.57447636
0.57557575
0.57665227
0.57770349
0.57872701
0.57972046
0.58068151
0.58160785
0.58249725
0.58334748
0.58415639
0.58492189
0.58564198
0.58631474
0.58693837
0.58751119
0.58803165
0.58849838
0.58891018
0.58926605
0.58956523
0.58980716
0.58999159
0.59011818
0.59018643
0.59019619
0.59014767
0.59004103
0.58987572
0.58965124
0.58936433
0.58901641
0.58859607
0.58812258
0.58754922
0.58696757
0.58618612
0.58554492
0.58443347
0.58389751
0.58227198
0.58198778
0.57985059
0.57968609
0.093960158
0.44119536
0.54508057
0.55803411
0.55592653
0.55465965
0.55458473
0.55504401
0.55532289
0.55571471
0.55609039
0.55652998
0.55699363
0.55750812
0.55806348
0.55866269
0.55930257
0.55998373
0.56070428
0.56146195
0.56225454
0.56307967
0.56393483
0.56481734
0.56572444
0.56665331
0.56760103
0.56856469
0.56954132
0.57052793
0.57152154
0.57251914
0.57351776
0.57451439
0.57550607
0.57648985
0.57746279
0.57842199
0.57936458
0.58028773
0.58118864
0.58206455
0.58291275
0.58373057
0.58451542
0.58526476
0.58597615
0.58664723
0.58727577
0.58785966
0.58839693
0.58888575
0.5893245
0.58971172
0.59004619
0.59032689
0.59055308
0.59072427
0.59084026
0.59090078
0.5909054
0.59085407
0.59074711
0.59058473
0.59036649
0.59009186
0.58975788
0.5893655
0.58890448
0.58839185
0.58778523
0.58716765
0.58636292
0.58568972
0.58456572
0.58399468
0.58236262
0.58206213
0.57988222
0.57977145
0.16665676
0.49938089
0.55868193
0.5660343
0.56256454
0.56242932
0.56247874
0.56296875
0.56313795
0.56347728
0.5637543
0.56410978
0.56447642
0.56488304
0.56531322
0.56577259
0.56625927
0.56677579
0.56732149
0.56789576
0.56849798
0.56912738
0.56978292
0.57046338
0.57116733
0.57189318
0.57263912
0.57340318
0.57418324
0.574977