/*--------------------------------*- C++ -*----------------------------------*\
| =========                 |                                                 |
| \\      /  F ield         | OpenFOAM: The Open Source CFD Toolbox           |
|  \\    /   O peration     | Version:  2512                                  |
|   \\  /    A nd           | Website:  www.openfoam.com                      |
|    \\/     M anipulation  |                                                 |
\*---------------------------------------------------------------------------*/
FoamFile
{
    version     2.0;
    format      ascii;
    arch        "LSB;label=32;scalar=64";
    class       volScalarField;
    location    "0.146";
    object      nut;
}
// * * * * * * * * * * * * * * * * * * * * * * * * * * * * * * * * * * * * * //

dimensions      [0 2 -1 0 0 0 0];

internalField   nonuniform List<scalar> 
16000
(
5.6230949e-07
1.100332e-05
1.8634653e-05
2.3239441e-05
1.8545943e-05
2.509102e-05
1.7855819e-05
2.4521844e-05
1.9080726e-05
2.6494423e-05
2.2164696e-05
2.6141271e-05
2.3727595e-05
2.435151e-05
2.3478462e-05
2.3317761e-05
2.3043782e-05
2.2952459e-05
2.2940511e-05
2.3028075e-05
2.3207365e-05
2.3476913e-05
2.3833939e-05
2.4278219e-05
2.481147e-05
2.5439293e-05
2.6169265e-05
2.701369e-05
2.7987611e-05
2.9107226e-05
3.0390278e-05
3.1860447e-05
3.3548367e-05
3.549181e-05
3.7737292e-05
4.0340303e-05
4.3366945e-05
4.6896023e-05
5.1025123e-05
5.5875245e-05
6.1588341e-05
6.833148e-05
7.6315398e-05
8.5798275e-05
9.7087316e-05
0.00011055088
0.0001266458
0.00014592874
0.00016907755
0.00019691834
0.00023046239
0.00027095051
0.00031990022
0.00037917166
0.00045104514
0.00053832704
0.00064448172
0.00077380296
0.00093164537
0.0010189246
0.00101886
0.0010187524
0.0010186076
0.0010183896
0.0010180946
0.0010177119
0.0010172343
0.001016656
0.0010159677
0.001015153
0.0010141829
0.0010130043
0.0010115809
0.0010101352
0.0010088869
0.0010077522
0.0010067126
0.0010064868
0.0010051324
0.0010059834
5.0883597e-07
1.0425928e-05
1.9566968e-05
2.0935082e-05
1.6752674e-05
2.2538736e-05
1.587452e-05
2.1499269e-05
1.6882251e-05
2.3411172e-05
2.0092489e-05
2.3587564e-05
2.1722631e-05
2.2084618e-05
2.1398608e-05
2.1188103e-05
2.0958171e-05
2.0864488e-05
2.0856066e-05
2.0936049e-05
2.1101899e-05
2.1351778e-05
2.1683472e-05
2.2096864e-05
2.2593177e-05
2.3177633e-05
2.3856765e-05
2.4641639e-05
2.5546483e-05
2.6587103e-05
2.7780009e-05
2.9146823e-05
3.0715892e-05
3.2522185e-05
3.4609218e-05
3.7029164e-05
3.9844593e-05
4.3129557e-05
4.6974934e-05
5.149527e-05
5.6827022e-05
6.3127493e-05
7.059514e-05
7.9476153e-05
9.0065671e-05
0.00010271389
0.00011785664
0.00013602694
0.00015787531
0.00018419519
0.00021595822
0.00025435988
0.00030086431
0.00035726984
0.00042578337
0.000509124
0.00061065289
0.00073453297
0.00088594172
0.0010181996
0.0010181555
0.0010180264
0.0010178676
0.0010176376
0.001017332
0.0010169397
0.0010164526
0.0010158651
0.0010151688
0.001014348
0.0010133779
0.0010122121
0.0010108142
0.0010094359
0.0010082469
0.0010071479
0.0010062204
0.0010057478
0.0010049596
0.0010059099
4.3675681e-07
9.9876927e-06
1.8554081e-05
1.9164968e-05
1.5036734e-05
1.9889317e-05
1.4152644e-05
1.8702174e-05
1.5196617e-05
2.0545284e-05
1.8334974e-05
2.100841e-05
1.9689776e-05
1.9786135e-05
1.9255832e-05
1.9026352e-05
1.8832429e-05
1.8746904e-05
1.8744257e-05
1.8821189e-05
1.8976643e-05
1.9209176e-05
1.9516872e-05
1.9899926e-05
2.0359236e-05
2.0899859e-05
2.1527645e-05
2.2252634e-05
2.3088099e-05
2.4049477e-05
2.5152468e-05
2.6417081e-05
2.7869785e-05
2.9543139e-05
3.147801e-05
3.3723532e-05
3.6339162e-05
3.9395247e-05
4.2977059e-05
4.7192716e-05
5.2174197e-05
5.8071342e-05
6.5072146e-05
7.3411657e-05
8.3375482e-05
9.5299186e-05
0.00010960111
0.00012679453
0.00014750734
0.0001725066
0.00020273129
0.00023933958
0.00028375146
0.00033771432
0.00040337458
0.00048337874
0.00058100164
0.00070030369
0.00084632801
0.0010175209
0.0010174972
0.0010173418
0.0010171612
0.0010169115
0.0010165878
0.0010161787
0.0010156753
0.0010150719
0.0010143611
0.0010135275
0.0010125489
0.0010113868
0.0010100078
0.0010087052
0.0010075808
0.0010065465
0.0010056748
0.0010051151
0.0010046673
0.0010054988
3.8433794e-07
9.6620915e-06
1.7654502e-05
1.8410017e-05
1.3572399e-05
1.7592533e-05
1.2629774e-05
1.6357289e-05
1.3694852e-05
1.8114364e-05
1.6753621e-05
1.8727425e-05
1.7815759e-05
1.7718649e-05
1.7305267e-05
1.7077071e-05
1.6914343e-05
1.6841098e-05
1.6845857e-05
1.692213e-05
1.70696e-05
1.7287352e-05
1.7573829e-05
1.7929682e-05
1.8355629e-05
1.8856709e-05
1.9438335e-05
2.0109736e-05
2.0883282e-05
2.1774102e-05
2.2797374e-05
2.3971737e-05
2.5322142e-05
2.6879082e-05
2.8681191e-05
3.0774992e-05
3.3217262e-05
3.6075465e-05
3.9430445e-05
4.3384356e-05
4.8065778e-05
5.3618947e-05
6.022352e-05
6.8104699e-05
7.7541295e-05
8.8857711e-05
0.00010245853
0.00011884181
0.00013861813
0.00016253535
0.0001915078
0.00022666653
0.00026939933
0.00032141757
0.00038482558
0.00046221976
0.00055681546
0.00067260492
0.00081454896
0.00098880862
0.0010168824
0.0010166979
0.0010164905
0.0010162166
0.0010158707
0.0010154408
0.0010149175
0.0010142946
0.0010135655
0.0010127157
0.0010117244
0.0010105633
0.0010091985
0.0010079719
0.0010069166
0.0010059519
0.0010051134
0.001004526
0.0010043009
0.0010048321
3.5243685e-07
9.4284177e-06
1.6886597e-05
1.8492013e-05
1.3437474e-05
1.5582153e-05
1.1292086e-05
1.4343954e-05
1.2401885e-05
1.6021139e-05
1.5348098e-05
1.6672567e-05
1.6066423e-05
1.5838275e-05
1.5511229e-05
1.5297494e-05
1.5159722e-05
1.5098315e-05
1.5108359e-05
1.5182661e-05
1.5321246e-05
1.552389e-05
1.5789432e-05
1.611902e-05
1.6513336e-05
1.6977435e-05
1.7516409e-05
1.8138844e-05
1.8856203e-05
1.968326e-05
2.0634857e-05
2.1728502e-05
2.2987892e-05
2.4441742e-05
2.6126777e-05
2.8087259e-05
3.0377582e-05
3.3062903e-05
3.6220786e-05
3.9947742e-05
4.4369528e-05
4.9626249e-05
5.5891124e-05
6.3380166e-05
7.2367136e-05
8.3167851e-05
9.6175659e-05
0.00011187628
0.0001308661
0.00015387828
0.00018180713
0.00021576239
0.00025710608
0.0003075211
0.00036907898
0.00044433684
0.00053646344
0.00064939726
0.00078803577
0.00095845614
0.0010163121
0.0010160957
0.0010158561
0.001015553
0.00101518
0.001014725
0.0010141775
0.001013531
0.0010127797
0.00101191
0.001010901
0.0010097368
0.0010083949
0.0010072449
0.0010062618
0.0010053675
0.0010045596
0.0010039872
0.0010039188
0.0010041244
3.1137097e-07
9.2720163e-06
1.6277448e-05
1.8222509e-05
1.3239381e-05
1.3827932e-05
1.0739637e-05
1.2675215e-05
1.1705637e-05
1.4302765e-05
1.4119441e-05
1.4866324e-05
1.4463405e-05
1.4157233e-05
1.3884336e-05
1.368676e-05
1.3565232e-05
1.3511539e-05
1.3523474e-05
1.3594012e-05
1.3723172e-05
1.3911284e-05
1.4157445e-05
1.4463062e-05
1.4828996e-05
1.526021e-05
1.5761546e-05
1.6341113e-05
1.7009494e-05
1.7781086e-05
1.8670568e-05
1.9694545e-05
2.0875735e-05
2.2241396e-05
2.3826703e-05
2.5674073e-05
2.7835919e-05
3.0375595e-05
3.3368629e-05
3.6906712e-05
4.1113056e-05
4.6125155e-05
5.2112188e-05
5.9281901e-05
6.7904891e-05
7.8291399e-05
9.0826518e-05
0.00010598731
0.00012435972
0.00014666782
0.00017379189
0.00020682778
0.00024712041
0.00029633442
0.00035652136
0.00043021431
0.00052055341
0.00063144449
0.00076774985
0.00093550173
0.0010157782
0.0010155271
0.0010152509
0.0010149144
0.0010145102
0.0010140263
0.0010134515
0.0010127781
0.0010120012
0.0010111089
0.0010100786
0.0010089059
0.001007602
0.0010065293
0.001005621
0.0010047976
0.0010040249
0.0010034726
0.0010034718
0.0010034847
2.7374869e-07
9.1797577e-06
1.5796117e-05
1.7197107e-05
1.308337e-05
1.2218455e-05
1.0732068e-05
1.1671487e-05
1.1202731e-05
1.2716235e-05
1.2998212e-05
1.3260822e-05
1.2963647e-05
1.2624889e-05
1.2384117e-05
1.2204088e-05
1.2095822e-05
1.2049623e-05
1.2063928e-05
1.2132251e-05
1.2254237e-05
1.2430708e-05
1.2660999e-05
1.2870077e-05
1.3202995e-05
1.3598431e-05
1.4060627e-05
1.459699e-05
1.5217064e-05
1.5934535e-05
1.6763888e-05
1.7720857e-05
1.8827272e-05
2.0109009e-05
2.1599825e-05
2.3340462e-05
2.5381488e-05
2.7784495e-05
3.0623727e-05
3.424349e-05
3.8276748e-05
4.3093554e-05
4.8861457e-05
5.5781148e-05
6.4121118e-05
7.4188947e-05
8.6364361e-05
0.0001011191
0.00011903182
0.00014082279
0.00016736345
0.0001997425
0.00023929549
0.00028767776
0.00034693201
0.00041958074
0.00050875111
0.00061833433
0.00075317992
0.00091930711
0.0010152775
0.0010149891
0.0010146723
0.0010142985
0.0010138595
0.0010133435
0.0010127383
0.0010120354
0.0010112298
0.0010103126
0.0010092597
0.0010080705
0.00100683
0.0010058346
0.0010050012
0.0010042494
0.0010035199
0.0010029862
0.0010029785
0.0010028853
2.5204164e-07
9.1273367e-06
1.5375739e-05
1.5601713e-05
1.1726626e-05
1.064349e-05
9.0504328e-06
1.0368472e-05
9.481849e-06
1.1456654e-05
1.1858517e-05
1.1777824e-05
1.1526383e-05
1.1198382e-05
1.0985274e-05
1.0827983e-05
1.0735747e-05
1.0700137e-05
1.0654631e-05
1.0708115e-05
1.081494e-05
1.0975085e-05
1.1186691e-05
1.1449343e-05
1.1767184e-05
1.2143246e-05
1.2581937e-05
1.3090636e-05
1.3678377e-05
1.4358451e-05
1.5145576e-05
1.6055052e-05
1.7108311e-05
1.8330386e-05
1.9754227e-05
2.1419542e-05
2.3375807e-05
2.5683549e-05
2.8416604e-05
3.1664859e-05
3.5537863e-05
4.0174341e-05
4.5742022e-05
5.2878159e-05
6.1016778e-05
7.0862358e-05
8.2792491e-05
9.7276864e-05
0.00011489017
0.00013635446
0.00016253791
0.00019452923
0.000233663
0.00028159492
0.0003403708
0.00041251719
0.00050116556
0.0006102125
0.00074451817
0.00091012169
0.0010148036
0.0010144754
0.0010141149
0.0010137004
0.0010132237
0.0010126728
0.001012035
0.0010113007
0.0010104641
0.0010095197
0.0010084461
0.0010072326
0.0010060849
0.0010051671
0.0010044075
0.0010037275
0.0010030514
0.0010025374
0.001002508
0.0010023182
2.2871849e-07
9.0922852e-06
1.4919552e-05
1.3662883e-05
9.6089126e-06
9.4834265e-06
7.4869446e-06
8.9045452e-06
9.0576571e-06
1.0261971e-05
1.070742e-05
1.0401702e-05
1.0174528e-05
9.8806352e-06
9.6946003e-06
9.4946809e-06
9.3948202e-06
9.3562357e-06
9.3719089e-06
9.4385228e-06
9.5511493e-06
9.7128118e-06
9.9209455e-06
1.0175996e-05
1.0482026e-05
1.0842883e-05
1.1263081e-05
1.1750064e-05
1.2312539e-05
1.296339e-05
1.3717672e-05
1.459048e-05
1.5603132e-05
1.6780084e-05
1.8153801e-05
1.9763373e-05
2.1657629e-05
2.3896526e-05
2.6553336e-05
2.971721e-05
3.3498109e-05
3.8032822e-05
4.3491912e-05
5.0073118e-05
5.8029898e-05
6.7677535e-05
8.0096003e-05
9.4443733e-05
0.00011191588
0.00013324164
0.00015929181
0.00019116226
0.00023019516
0.00027805644
0.00033680712
0.00040899284
0.0004977672
0.00060705275
0.00074174344
0.00090792935
0.0010143509
0.0010139806
0.001013574
0.0010131163
0.0010125994
0.0010120113
0.0010113393
0.0010105723
0.0010097033
0.001008729
0.0010076395
0.001006418
0.0010053735
0.0010045336
0.0010038454
0.0010032359
0.0010026236
0.0010021303
0.0010020477
0.0010017276
2.0768974e-07
9.0510611e-06
1.3206334e-05
1.194521e-05
7.7674485e-06
8.4383605e-06
6.7832934e-06
8.0143254e-06
8.3820381e-06
9.1726324e-06
9.5683242e-06
9.1502527e-06
8.9327983e-06
8.593878e-06
8.4007063e-06
8.2725654e-06
8.2063974e-06
8.1932245e-06
8.2260297e-06
8.3052551e-06
8.4252142e-06
8.5876848e-06
8.7938798e-06
9.0436489e-06
9.3413295e-06
9.6912096e-06
1.0097989e-05
1.0569307e-05
1.1113688e-05
1.1743646e-05
1.2474616e-05
1.3321773e-05
1.4306522e-05
1.5452985e-05
1.6793428e-05
1.8366696e-05
2.0221379e-05
2.2417365e-05
2.502826e-05
2.8143666e-05
3.1873691e-05
3.6354808e-05
4.1760802e-05
4.8289651e-05
5.6197281e-05
6.5801231e-05
7.7492982e-05
9.1732078e-05
0.00011009893
0.00013147524
0.00015761818
0.0001896378
0.00022889312
0.00027707068
0.00033625956
0.00040904039
0.00049860805
0.0006089337
0.00074496971
0.00091288719
0.0010139131
0.0010134988
0.0010130444
0.0010125417
0.0010119827
0.001011356
0.0010106485
0.0010098482
0.001008947
0.0010079405
0.0010068365
0.0010056498
0.0010047014
0.0010039392
0.0010033191
0.0010027772
0.0010022349
0.0010017684
0.0010016078
0.0010011948
1.8966023e-07
9.0001224e-06
1.0470891e-05
9.8182577e-06
6.431379e-06
7.5102864e-06
6.1889785e-06
7.1970832e-06
7.8350743e-06
8.1769705e-06
8.4492308e-06
7.9253401e-06
7.664007e-06
7.4246857e-06
7.279092e-06
7.1901209e-06
7.1521803e-06
7.161737e-06
7.2113203e-06
7.3001788e-06
7.4267443e-06
7.5923785e-06
7.7986815e-06
8.0461232e-06
8.3391578e-06
8.6825456e-06
9.0812973e-06
9.543299e-06
1.0077073e-05
1.0694816e-05
1.1353859e-05
1.217676e-05
1.3135594e-05
1.4254102e-05
1.5564322e-05
1.7104872e-05
1.892416e-05
2.1082058e-05
2.3652618e-05
2.6726165e-05
3.041396e-05
3.512719e-05
4.0535536e-05
4.7078837e-05
5.5015602e-05
6.4666838e-05
7.6435281e-05
9.0791532e-05
0.00010832906
0.00012978769
0.00015750232
0.000189944
0.00022974937
0.00027863652
0.00033873613
0.00041268084
0.00050372709
0.00061591941
0.00075429569
0.00092513696
0.0010134842
0.0010130242
0.0010125213
0.0010119724
0.00101137
0.0010107037
0.0010099601
0.0010091265
0.0010081941
0.0010071568
0.0010060312
0.0010049297
0.0010040737
0.001003388
0.0010028321
0.0010023529
0.0010018811
0.0010014469
0.0010012102
0.0010007908
1.7476531e-07
8.9470847e-06
8.2641938e-06
8.3589589e-06
5.7573635e-06
6.6505926e-06
5.6770358e-06
6.4823103e-06
7.2762296e-06
7.247681e-06
7.236154e-06
6.7894572e-06
6.5751166e-06
6.3968221e-06
6.2918512e-06
6.2359062e-06
6.224056e-06
6.25176e-06
6.315756e-06
6.4156069e-06
6.5497753e-06
6.7200547e-06
6.9289213e-06
7.1773446e-06
7.4699069e-06
7.7781871e-06
8.1677481e-06
8.6201211e-06
9.1436945e-06
9.7502211e-06
1.0453837e-05
1.1272932e-05
1.2228241e-05
1.3343582e-05
1.4651317e-05
1.61905e-05
1.8010185e-05
2.0171106e-05
2.2748883e-05
2.5835856e-05
2.9546044e-05
3.4021931e-05
3.9438115e-05
4.6003989e-05
5.3982577e-05
6.4254574e-05
7.6210148e-05
9.0813753e-05
0.00010866975
0.0001305412
0.00015736044
0.00019206922
0.00023275837
0.00028275698
0.00034425155
0.00041994509
0.00051317748
0.00062809373
0.00076984851
0.00094486096
0.0010130586
0.0010125515
0.0010120001
0.0010114045
0.0010107583
0.0010100517
0.0010092719
0.0010084053
0.001007443
0.0010063826
0.0010052346
0.001004261
0.0010034937
0.0010028824
0.001002387
0.0010019646
0.0010015624
0.0010011743
0.001000882
0.0010004492
1.6126889e-07
8.8684285e-06
6.5749708e-06
7.3423347e-06
5.1310249e-06
5.8806817e-06
5.2339092e-06
5.8455772e-06
6.609418e-06
6.1947257e-06
6.14048e-06
5.7953989e-06
5.6244251e-06
5.4958294e-06
5.4258953e-06
5.3984302e-06
5.4089034e-06
5.4547854e-06
5.5330284e-06
5.6440776e-06
5.7872759e-06
5.9645499e-06
6.1527423e-06
6.4000566e-06
6.6913285e-06
7.0307576e-06
7.4253981e-06
7.8827926e-06
8.4115215e-06
9.0235136e-06
9.7330398e-06
1.0558258e-05
1.1521137e-05
1.2645871e-05
1.3965402e-05
1.5519592e-05
1.7358671e-05
1.9544733e-05
2.2155656e-05
2.528679e-05
2.905509e-05
3.3606321e-05
3.9124107e-05
4.5823215e-05
5.3975006e-05
6.3917042e-05
7.606872e-05
9.0937134e-05
0.00011010816
0.0001325809
0.00016015666
0.00019402624
0.00023790672
0.00028942699
0.00035281179
0.00043085459
0.00052700238
0.0006455294
0.00079174453
0.00097223595
0.0010126309
0.0010120759
0.0010114769
0.0010108349
0.0010101447
0.0010093977
0.0010085822
0.0010076839
0.0010066922
0.0010056187
0.0010045144
0.0010036452
0.0010029633
0.0010024237
0.001001986
0.0010016134
0.0010012742
0.001000946
0.0010006294
0.0010001626
1.4940338e-07
8.7350151e-06
5.2781932e-06
6.4197678e-06
4.5683171e-06
5.1933308e-06
4.8555581e-06
5.1949458e-06
5.7737151e-06
5.2798373e-06
5.1800206e-06
4.9267624e-06
4.7964754e-06
4.7094048e-06
4.670476e-06
4.6686392e-06
4.7000444e-06
4.7631917e-06
4.8560236e-06
4.9607936e-06
5.1091015e-06
5.2915181e-06
5.5103379e-06
5.7685451e-06
6.0704171e-06
6.4205051e-06
6.8257522e-06
7.2942934e-06
7.8349099e-06
8.459678e-06
9.1829909e-06
1.0023242e-05
1.0953232e-05
1.2087376e-05
1.3418561e-05
1.4987428e-05
1.6845584e-05
1.9056528e-05
2.1700427e-05
2.4876124e-05
2.8704491e-05
3.3588715e-05
3.925824e-05
4.6151482e-05
5.45492e-05
6.479873e-05
7.7339642e-05
9.2701592e-05
0.00011153339
0.00013587635
0.00016443775
0.00019953703
0.00024269412
0.00029862745
0.00036440747
0.00044541304
0.00054522515
0.00066827654
0.00082007347
0.0010074155
0.0010121964
0.0010115936
0.0010109485
0.001010261
0.0010095274
0.0010087403
0.0010078893
0.0010069618
0.0010059455
0.0010048541
0.0010038589
0.0010030859
0.0010024832
0.0010020118
0.0010016304
0.0010013018
0.0010010122
0.0010007518
0.0010004672
0.00099997698
1.3889569e-07
8.515535e-06
4.3016988e-06
5.5945845e-06
4.0640338e-06
4.5821346e-06
4.5233644e-06
4.48918e-06
4.9331848e-06
4.4658779e-06
4.3493903e-06
4.171589e-06
4.0795593e-06
4.0281753e-06
4.0172584e-06
4.0390507e-06
4.0905105e-06
4.1544171e-06
4.2571942e-06
4.3905232e-06
4.5552871e-06
4.7530209e-06
4.9866695e-06
5.2593819e-06
5.5759584e-06
5.9411823e-06
6.3620404e-06
6.8265761e-06
7.379177e-06
8.0165521e-06
8.7531534e-06
9.607415e-06
1.0601901e-05
1.1764985e-05
1.3130551e-05
1.4740599e-05
1.6649088e-05
1.8921923e-05
2.164247e-05
2.491458e-05
2.8864682e-05
3.3652104e-05
3.9469616e-05
4.6554764e-05
5.5200327e-05
6.6318833e-05
7.9353165e-05
9.5332135e-05
0.00011493656
0.0001390064
0.00017016068
0.00020676454
0.00025179235
0.00030719919
0.00037899768
0.00046358707
0.00056782538
0.00069633392
0.0008548604
0.0010123742
0.0010117506
0.0010111016
0.0010104125
0.0010096813
0.0010089054
0.0010080791
0.0010071929
0.0010062374
0.0010052094
0.0010041358
0.0010032682
0.001002584
0.001002054
0.0010016458
0.0010013198
0.0010010327
0.0010007772
0.0010005756
0.0010003674
0.00099986966
1.296635e-07
8.2128023e-06
3.6847277e-06
4.860545e-06
3.6140564e-06
4.0398085e-06
4.006833e-06
3.8510736e-06
4.1252016e-06
3.7478847e-06
3.638667e-06
3.5208706e-06
3.4644604e-06
3.4445738e-06
3.4594148e-06
3.4906691e-06
3.5556733e-06
3.6502513e-06
3.7736211e-06
3.926028e-06
4.1089366e-06
4.3243596e-06
4.57562e-06
4.8661252e-06
5.1892931e-06
5.5697879e-06
6.0062313e-06
6.5067239e-06
7.0814685e-06
7.7426392e-06
8.5050861e-06
9.3880121e-06
1.0414929e-05
1.1615311e-05
1.3025392e-05
1.468874e-05
1.6662212e-05
1.9014836e-05
2.1833425e-05
2.5228014e-05
2.9330115e-05
3.4307097e-05
4.0364291e-05
4.7749925e-05
5.6773337e-05
6.7814224e-05
8.2062409e-05
9.8781292e-05
0.00011930339
0.00014452014
0.00017550582
0.0002156385
0.00026286394
0.0003209984
0.00039257336
0.00048528063
0.00059470777
0.00072961281
0.00089602051
0.0010119497
0.00101129
0.001010598
0.0010098677
0.0010090953
0.0010082788
0.0010074146
0.001006495
0.0010055122
0.0010044773
0.0010035037
0.0010027405
0.0010021393
0.0010016753
0.0010013245
0.0010010514
0.0010008066
0.0010005759
0.0010004079
0.0010002662
0.00099983151
1.2174505e-07
7.3833535e-06
3.2355254e-06
4.2039192e-06
3.2137329e-06
3.4078693e-06
3.5494469e-06
3.2667081e-06
3.3950073e-06
3.1247977e-06
3.0375577e-06
2.9673531e-06
2.9435161e-06
2.9521221e-06
2.9760854e-06
3.0374639e-06
3.1272554e-06
3.2442501e-06
3.3885251e-06
3.5610127e-06
3.7636858e-06
3.9988161e-06
4.2619356e-06
4.5701644e-06
4.9227226e-06
5.3252801e-06
5.7846709e-06
6.3093004e-06
6.9095942e-06
7.5985096e-06
8.3913844e-06
9.3082498e-06
1.0373694e-05
1.1618676e-05
1.3025635e-05
1.4738505e-05
1.6772588e-05
1.9200522e-05
2.2245951e-05
2.5787073e-05
3.0071066e-05
3.527328e-05
4.1612703e-05
4.9350917e-05
5.8813076e-05
7.0401856e-05
8.4611491e-05
0.00010204878
0.00012456245
0.00015109369
0.00018371095
0.00022382987
0.00027578395
0.0003370312
0.00041245754
0.00051030403
0.00062566219
0.00076788943
0.00094331873
0.0010115107
0.0010108142
0.0010100824
0.001009314
0.0010085037
0.0010076491
0.0010067485
0.0010057981
0.0010047971
0.0010037752
0.0010029433
0.0010022753
0.0010017501
0.0010013464
0.0010010463
0.0010008207
0.0010006187
0.0010004154
0.0010002718
0.0010001866
0.00099992582
1.1535413e-07
5.3590457e-06
2.8506757e-06
3.6088457e-06
2.865668e-06
2.8251876e-06
3.0933973e-06
2.737322e-06
2.7681437e-06
2.5930501e-06
2.5348569e-06
2.5037234e-06
2.502229e-06
2.5300129e-06
2.5896989e-06
2.6771892e-06
2.7905544e-06
2.9295707e-06
3.0950427e-06
3.2883326e-06
3.5067245e-06
3.7610771e-06
4.0515123e-06
4.3820633e-06
4.7575638e-06
5.1838905e-06
5.6682028e-06
6.219243e-06
6.8477735e-06
7.5507268e-06
8.3720677e-06
9.3202744e-06
1.0420939e-05
1.170613e-05
1.3215962e-05
1.5000596e-05
1.712206e-05
1.9658016e-05
2.2704841e-05
2.6381643e-05
3.0836342e-05
3.6512252e-05
4.3171746e-05
5.1309721e-05
6.1268222e-05
7.3472602e-05
8.8446264e-05
0.00010683381
0.00013061613
0.0001586144
0.0001930511
0.00023542038
0.0002903637
0.00035507637
0.00043479679
0.00053303662
0.00066032638
0.00081075356
0.00099629817
0.0010110589
0.0010103246
0.0010095559
0.0010087524
0.0010079082
0.0010070194
0.001006085
0.0010051059
0.0010040957
0.0010031745
0.0010024492
0.0010018693
0.0010014129
0.0010010649
0.00100081
0.0010006238
0.0010004616
0.0010002938
0.0010001796
0.0010001355
0.0010000029
1.1014134e-07
3.9859001e-06
2.5050062e-06
3.0585148e-06
2.428922e-06
2.3350756e-06
2.6162217e-06
2.2666623e-06
2.2477013e-06
2.146958e-06
2.1209476e-06
2.1167549e-06
2.1446792e-06
2.2040205e-06
2.2906523e-06
2.4021887e-06
2.5379106e-06
2.6982795e-06
2.8819379e-06
3.0948355e-06
3.337984e-06
3.6142142e-06
3.9269812e-06
4.2804949e-06
4.6798391e-06
5.1311474e-06
5.6418706e-06
6.2117814e-06
6.8670816e-06
7.6152035e-06
8.4734242e-06
9.4632097e-06
1.0611617e-05
1.1952629e-05
1.3528855e-05
1.5393408e-05
1.7612321e-05
2.0267768e-05
2.3462008e-05
2.732196e-05
3.2004939e-05
3.7704977e-05
4.499437e-05
5.3571499e-05
6.4075039e-05
7.6954769e-05
9.2764686e-05
0.00011218841
0.00013606925
0.00016693134
0.00020334711
0.0002481666
0.00030335399
0.0003748183
0.00045921018
0.00056323477
0.00069815003
0.00085755695
0.0010113545
0.0010105964
0.0010098246
0.0010090217
0.0010081855
0.0010073114
0.0010063934
0.0010054299
0.0010044328
0.0010034413
0.0010026516
0.0010020201
0.0010015187
0.0010011242
0.0010008267
0.0010006133
0.0010004585
0.0010003271
0.0010001977
0.0010001212
0.0010001033
0.0010000241
1.0457918e-07
3.5216057e-06
2.1395459e-06
2.5508258e-06
2.0705486e-06
1.9246013e-06
2.1292946e-06
1.8562456e-06
1.82702e-06
1.7829301e-06
1.7847584e-06
1.8126275e-06
1.8730516e-06
1.9596984e-06
2.0701319e-06
2.2034307e-06
2.3598029e-06
2.5384148e-06
2.7439697e-06
2.9775896e-06
3.2417971e-06
3.5396554e-06
3.8748312e-06
4.2517065e-06
4.6755462e-06
5.1527089e-06
5.6846241e-06
6.2906054e-06
6.9780656e-06
7.7614667e-06
8.6590015e-06
9.6933862e-06
1.0893196e-05
1.229436e-05
1.3942105e-05
1.5893069e-05
1.8217587e-05
2.1002855e-05
2.435735e-05
2.8415191e-05
3.3342914e-05
3.9631254e-05
4.70257e-05
5.607185e-05
6.7157201e-05
8.0757208e-05
9.745793e-05
0.00011798246
0.00014455003
0.00017584936
0.00021436209
0.00026177797
0.00032017992
0.00039582866
0.00048518464
0.0005953659
0.00073835444
0.00090735303
0.0010109081
0.0010101254
0.0010093197
0.0010084852
0.0010076182
0.0010067165
0.0010057755
0.0010047901
0.0010037803
0.0010028977
0.0010022
0.0010016503
0.001001219
0.0010008806
0.0010006265
0.0010004518
0.0010003233
0.0010002133
0.0010001136
0.0010000744
0.0010000823
0.0010000424
1.0051551e-07
3.0372926e-06
1.8240875e-06
2.0395817e-06
1.7745243e-06
1.574593e-06
1.6825234e-06
1.5112109e-06
1.4984017e-06
1.4989131e-06
1.5283917e-06
1.5897151e-06
1.6768956e-06
1.7864082e-06
1.9173079e-06
2.0697923e-06
2.2438133e-06
2.4424591e-06
2.6673053e-06
2.9206742e-06
3.205343e-06
3.5245605e-06
3.8821343e-06
4.2825706e-06
4.7312725e-06
5.2312256e-06
5.7957315e-06
6.4322916e-06
7.152978e-06
7.9729398e-06
8.9114049e-06
9.9924036e-06
1.1246191e-05
1.2710761e-05
1.4433906e-05
1.6475736e-05
1.8911413e-05
2.183325e-05
2.535655e-05
2.9623319e-05
3.5038643e-05
4.1412876e-05
4.9200506e-05
5.8734475e-05
7.0423205e-05
8.477004e-05
0.00010239445
0.00012406125
0.000152072
0.0001851185
0.00022579534
0.00027588996
0.00033761246
0.00041753743
0.00051202906
0.00062859244
0.00077989977
0.00095887226
0.0010104611
0.0010096524
0.0010088163
0.0010079536
0.0010070588
0.0010061295
0.0010051681
0.0010041838
0.0010032079
0.0010024392
0.0010018201
0.001001335
0.0010009629
0.0010006802
0.0010004589
0.0010003181
0.001000213
0.0010001207
0.0010000447
0.001000036
0.0010000671
0.0010000541
9.8102942e-08
2.5359926e-06
1.5499699e-06
1.5526982e-06
1.5041851e-06
1.2770406e-06
1.3205831e-06
1.2376573e-06
1.2533301e-06
1.2851607e-06
1.3480603e-06
1.4351968e-06
1.5435233e-06
1.6717016e-06
1.8199837e-06
1.9893774e-06
2.1807462e-06
2.3970529e-06
2.6401322e-06
2.9125312e-06
3.2171737e-06
3.5574281e-06
3.9372051e-06
4.3611094e-06
4.8346488e-06
5.3645204e-06
5.9589801e-06
6.6282908e-06
7.3768047e-06
8.2338883e-06
9.214e-06
1.0342568e-05
1.1651644e-05
1.3181479e-05
1.4982473e-05
1.7187402e-05
1.9756026e-05
2.2840389e-05
2.6563238e-05
3.107606e-05
3.6565505e-05
4.326121e-05
5.1446989e-05
6.1472373e-05
7.3768091e-05
8.8865326e-05
0.00010741806
0.00013137041
0.00015964628
0.00019444044
0.00023727996
0.00029005245
0.00035845487
0.00043924101
0.0005388816
0.00066186199
0.00082147004
0.001010504
0.0010100233
0.0010091875
0.0010083232
0.0010074349
0.0010065174
0.0010055655
0.0010045782
0.0010035851
0.0010027397
0.0010020566
0.0010015091
0.0010010752
0.0010007427
0.0010005153
0.0010003213
0.0010002062
0.0010001217
0.0010000474
0.00099999352
0.0010000074
0.0010000576
0.0010000595
9.8130399e-08
2.0402018e-06
1.3192292e-06
1.1796947e-06
1.2355515e-06
1.0294095e-06
1.0557757e-06
1.0361694e-06
1.0804793e-06
1.1416608e-06
1.2282981e-06
1.3346001e-06
1.4595025e-06
1.6031553e-06
1.766619e-06
1.9513925e-06
2.1590046e-06
2.3920192e-06
2.652612e-06
2.9434413e-06
3.2675166e-06
3.6282844e-06
4.0297404e-06
4.4765882e-06
4.9744601e-06
5.5302152e-06
6.1523381e-06
6.8514387e-06
7.6408748e-06
8.5375403e-06
9.5627946e-06
1.0743696e-05
1.2114354e-05
1.371767e-05
1.5607373e-05
1.7850513e-05
2.0530554e-05
2.3751371e-05
2.7641547e-05
3.2360305e-05
3.8104368e-05
4.5115824e-05
5.3690872e-05
6.419659e-05
7.7084108e-05
9.3679009e-05
0.00011327555
0.00013736654
0.00016700266
0.00020348249
0.00024840949
0.00030661828
0.00037536254
0.00046013508
0.00056474881
0.0007006842
0.00086151079
0.0010104562
0.0010096042
0.001008743
0.0010078536
0.001006939
0.0010059992
0.0010050357
0.001004054
0.0010030885
0.0010023433
0.001001738
0.0010012564
0.0010008755
0.0010005796
0.0010003595
0.0010002117
0.0010001124
0.0010000444
0.00099998828
0.00099995767
0.00099998904
0.0010000504
0.0010000586
1.0141463e-07
1.5831357e-06
1.13001e-06
9.077141e-07
1.0793032e-06
8.2498349e-07
8.7411511e-07
8.9938848e-07
9.6616788e-07
1.0500642e-06
1.1536633e-06
1.2745494e-06
1.4131136e-06
1.5703506e-06
1.7477284e-06
1.9469607e-06
2.1699956e-06
2.4188615e-06
2.6961904e-06
3.0046203e-06
3.3472249e-06
3.7275228e-06
4.149596e-06
4.6182558e-06
5.1392717e-06
5.7196812e-06
6.368208e-06
7.0958318e-06
7.9164193e-06
8.8475858e-06
9.9116277e-06
1.1136863e-05
1.2559023e-05
1.4223081e-05
1.6185371e-05
1.8516222e-05
2.1303094e-05
2.465445e-05
2.8704483e-05
3.3618958e-05
3.9872789e-05
4.7236911e-05
5.6242765e-05
6.7275116e-05
8.080711e-05
9.7421852e-05
0.00011783858
0.0001429448
0.0001738331
0.00021383934
0.00026102948
0.00031916825
0.00039084418
0.00047927251
0.00059419246
0.00073009468
0.00089811813
0.0010100721
0.0010092076
0.0010083289
0.0010074223
0.0010064869
0.0010055212
0.0010045307
0.0010035453
0.0010026959
0.0010020153
0.0010014716
0.0010010412
0.0010007026
0.0010004497
0.0010002494
0.0010001214
0.0010000356
0.00099997829
0.00099993764
0.00099992923
0.00099997714
0.0010000463
0.001000058
1.0811116e-07
1.2366561e-06
9.676167e-07
7.6469668e-07
7.7082009e-07
7.0547078e-07
7.5159851e-07
8.1203382e-07
8.956044e-07
9.951943e-07
1.1115075e-06
1.2444596e-06
1.3951133e-06
1.5647775e-06
1.7550393e-06
1.9676697e-06
2.2046497e-06
2.4681865e-06
2.7607523e-06
3.0851292e-06
3.4444739e-06
3.8424064e-06
4.2831338e-06
4.7716278e-06
5.3138691e-06
5.9150697e-06
6.5873179e-06
7.3406187e-06
8.1966688e-06
9.1623384e-06
1.0265932e-05
1.1537146e-05
1.3013421e-05
1.4741818e-05
1.6781245e-05
1.920514e-05
2.2104754e-05
2.5593168e-05
2.9810186e-05
3.4928406e-05
4.1160683e-05
4.8769353e-05
5.8077429e-05
6.9480873e-05
8.34693e-05
0.00010064537
0.0001228362
0.00014899209
0.00018116419
0.00022076356
0.00026953563
0.00032964581
0.00040378121
0.00049999066
0.00061383935
0.00075456393
0.00092869216
0.0010097239
0.0010088448
0.0010079504
0.0010070326
0.0010060895
0.0010051195
0.0010041284
0.001003155
0.0010023856
0.0010017593
0.0010012607
0.0010008672
0.0010005623
0.0010003527
0.0010001605
0.0010000487
0.00099997342
0.00099992288
0.00099989262
0.00099989966
0.00099996124
0.0010000416
0.0010000558
1.2251609e-07
1.2085909e-06
8.0925597e-07
5.6786007e-07
6.1238637e-07
6.1518003e-07
6.7904623e-07
7.5791965e-07
8.5472642e-07
9.6621907e-07
1.0934104e-06
1.2371106e-06
1.3986078e-06
1.5793057e-06
1.7808187e-06
2.0049446e-06
2.2536943e-06
2.5293167e-06
2.8343346e-06
3.1715891e-06
3.5443004e-06
3.9561546e-06
4.4114271e-06
4.91516e-06
5.4734135e-06
6.093611e-06
6.7849968e-06
7.5592243e-06
8.4311018e-06
9.4194845e-06
1.0548348e-05
1.1848133e-05
1.3357272e-05
1.5124088e-05
1.7209044e-05
1.9687488e-05
2.2652992e-05
2.6221401e-05
3.053582e-05
3.5772718e-05
4.2149581e-05
5.0292041e-05
5.9888745e-05
7.1642063e-05
8.6055836e-05
0.00010374995
0.00012548957
0.0001522197
0.00018510856
0.00022560007
0.00027548704
0.0003401041
0.0004165384
0.00051089381
0.00062749032
0.0007717293
0.00095036676
0.0010094394
0.0010085424
0.0010076282
0.0010066928
0.0010057354
0.0010047575
0.0010037749
0.0010028663
0.0010021511
0.0010015705
0.0010011084
0.0010007434
0.0010004625
0.00100025
0.0010000988
0.00099999034
0.00099992547
0.00099988033
0.00099985653
0.00099986789
0.00099992667
0.0010000057
0.0010000336
1.1482707e-07
7.1591403e-07
6.4102644e-07
4.7008989e-07
5.1309369e-07
5.5898113e-07
6.3767884e-07
7.2998571e-07
8.3729677e-07
9.5893529e-07
1.0959825e-06
1.2494823e-06
1.4207501e-06
1.6112467e-06
1.8226212e-06
2.0567183e-06
2.3156034e-06
2.6015546e-06
2.9172041e-06
3.2654409e-06
3.649553e-06
4.0732954e-06
4.5410141e-06
5.0578252e-06
5.6298704e-06
6.264668e-06
6.97158e-06
7.7624176e-06
8.6592698e-06
9.6703493e-06
1.0824963e-05
1.2154315e-05
1.3697739e-05
1.5504657e-05
1.7636843e-05
2.0171238e-05
2.3203324e-05
2.6851285e-05
3.1261093e-05
3.6612755e-05
4.3127982e-05
5.1079543e-05
6.0802788e-05
7.2711698e-05
8.7315664e-05
0.00010524315
0.00012727
0.00015570959
0.00018928236
0.00023060857
0.00028152005
0.00034428968
0.0004217467