/*--------------------------------*- C++ -*----------------------------------*\
| =========                 |                                                 |
| \\      /  F ield         | OpenFOAM: The Open Source CFD Toolbox           |
|  \\    /   O peration     | Version:  2512                                  |
|   \\  /    A nd           | Website:  www.openfoam.com                      |
|    \\/     M anipulation  |                                                 |
\*---------------------------------------------------------------------------*/
FoamFile
{
    version     2.0;
    format      ascii;
    arch        "LSB;label=32;scalar=64";
    class       volScalarField;
    location    "0.146";
    object      omega;
}
// * * * * * * * * * * * * * * * * * * * * * * * * * * * * * * * * * * * * * //

dimensions      [0 0 -1 0 0 0 0];

internalField   nonuniform List<scalar> 
16000
(
1452.9445
1943.3484
1082.2457
643.69347
452.99094
315.40469
239.12507
180.39626
145.3875
117.70927
100.09728
85.687077
75.039636
66.12206
58.848657
52.714848
47.5353
43.115639
39.316758
36.027272
33.163706
30.65547
28.444423
26.484238
24.73752
23.175183
21.773133
20.512761
19.378299
18.35536
17.430916
16.594693
15.838505
15.155424
14.539536
13.985345
13.487679
13.041652
12.643178
12.288821
11.974711
11.696767
11.452018
11.237767
11.050946
10.888431
10.747794
10.626734
10.523043
10.434627
10.359612
10.296358
10.243337
10.199202
10.16278
10.133169
10.109772
10.092342
10.081177
10.076925
10.077501
10.077632
10.07716
10.076302
10.074929
10.072985
10.070425
10.067215
10.063301
10.058572
10.05282
10.045648
10.036806
10.028106
10.021427
10.016338
10.012971
10.017656
10.014823
10.029785
1472.2101
1921.8602
1070.776
643.81679
453.28537
318.30426
240.23926
182.28949
146.23453
118.75245
100.64895
86.259376
75.40592
66.440007
59.078757
52.893851
47.666517
43.211331
39.384559
36.072883
33.19203
30.67114
28.451084
26.484823
24.73392
23.168906
21.764985
20.503189
19.367822
18.344739
17.420647
16.584909
15.8292
15.146475
14.530852
13.976902
13.479559
13.033879
12.635584
12.281354
11.967617
11.690071
11.445588
11.231588
11.045181
10.883091
10.742849
10.622168
10.518864
10.430841
10.356192
10.293289
10.240598
10.196775
10.160621
10.131194
10.107856
10.090262
10.078466
10.073022
10.073118
10.073201
10.072629
10.071682
10.070234
10.068224
10.065599
10.062324
10.058351
10.053578
10.047833
10.040769
10.032133
10.023954
10.017725
10.012913
10.010396
10.012976
10.015321
10.030664
1477.01
1909.4212
1057.5916
640.03475
450.12877
318.55641
239.20351
182.49782
145.8195
118.92981
100.51211
86.285532
75.313752
66.351113
58.954747
52.756905
47.517568
43.056295
39.227593
35.916389
33.037977
30.521629
28.30762
26.348664
24.605534
23.048666
21.652794
20.398672
19.270623
18.254853
17.338001
16.509165
15.759943
15.083198
14.47309
13.924236
13.431706
12.990599
12.596457
12.245933
11.935834
11.661741
11.420345
11.209087
11.025329
10.865688
10.727645
10.608933
10.507404
10.420989
10.347758
10.28611
10.23452
10.191668
10.156351
10.127609
10.104784
10.087509
10.075715
10.069665
10.069155
10.06911
10.068387
10.067295
10.065718
10.063591
10.060854
10.057469
10.053391
10.048526
10.042724
10.035703
10.027227
10.019642
10.013906
10.009591
10.007507
10.009227
10.014044
10.028993
1485.5441
1905.8937
1046.7514
636.44889
446.57662
318.61708
237.875
182.56509
145.26409
119.00764
100.32355
86.249898
75.180482
66.215044
58.790473
52.581375
47.33327
42.868299
39.040091
35.731645
32.857669
30.347726
28.141451
26.191445
24.457616
22.910354
21.52395
20.278864
19.159344
18.151997
17.243477
16.422588
15.680868
15.01106
14.407371
13.864446
13.37748
12.941676
12.552423
12.206211
11.90029
11.630187
11.392402
11.184296
11.003556
10.846706
10.711168
10.594685
10.495142
10.410523
10.338864
10.278599
10.228212
10.186409
10.151999
10.124001
10.101732
10.084806
10.0731
10.066738
10.065548
10.06532
10.064415
10.063145
10.061407
10.059134
10.056258
10.052736
10.048529
10.043547
10.037657
10.030659
10.022311
10.015328
10.010118
10.006331
10.004502
10.005971
10.012705
10.024753
1505.7459
1911.8868
1038.1259
633.01791
442.27359
317.93352
235.86637
182.14228
144.33573
118.8092
99.948318
86.038818
74.909396
65.947702
58.512063
52.302487
47.056419
42.596647
38.77687
35.478278
32.614905
30.116831
27.923104
25.986398
24.265827
22.731807
21.358255
20.125384
19.01727
18.020951
17.123222
16.312593
15.580573
14.919766
14.324436
13.789241
13.309481
12.880511
12.497656
12.157082
11.856513
11.591498
11.358388
11.154324
10.977386
10.824041
10.691639
10.577937
10.48084
10.398419
10.328672
10.270077
10.221129
10.180569
10.147229
10.120118
10.098532
10.082071
10.070579
10.064073
10.062325
10.061852
10.060729
10.059245
10.05731
10.054857
10.051812
10.048125
10.04376
10.038635
10.03262
10.025616
10.017467
10.011095
10.006436
10.003172
10.001578
10.003026
10.010859
10.020457
1517.3463
1926.6416
1034.1536
630.24384
438.38584
316.6262
233.3869
181.31311
143.1455
118.37446
99.431081
85.674412
74.519881
65.566207
58.133844
51.933243
46.698277
42.2513
38.446623
35.163953
32.316475
29.835001
27.658022
25.738309
24.034488
22.516944
21.159266
19.941484
18.847406
17.864487
16.979803
16.181555
15.461258
14.811353
14.226167
13.700365
13.229328
12.808574
12.433498
12.099821
11.805663
11.546696
11.319224
11.120001
10.947544
10.798322
10.669602
10.559155
10.46489
10.385002
10.317446
10.260755
10.213437
10.174275
10.142131
10.116018
10.095212
10.079297
10.068105
10.06158
10.059413
10.058646
10.057275
10.055545
10.053383
10.050721
10.047484
10.043608
10.039062
10.033775
10.027609
10.020556
10.012727
10.006976
10.00289
10.000137
9.9988123
10.000315
10.008533
10.016511
1525.0949
1947.2273
1033.9914
627.5858
434.57549
314.68927
230.82317
180.11002
141.82166
117.71042
98.781084
85.155342
74.00786
65.068076
57.652184
51.470244
46.255359
41.828922
38.045936
34.785408
31.959314
29.499382
27.343666
25.444371
23.76101
22.263417
20.924861
19.725272
18.648101
17.68117
16.811989
16.028426
15.322049
14.685106
14.111996
13.597386
13.136719
12.725648
12.359785
12.034506
11.747879
11.495924
11.275071
11.081538
10.914239
10.769745
10.645237
10.538514
10.447446
10.37041
10.305304
10.250734
10.205223
10.167597
10.136762
10.111745
10.091806
10.076512
10.065688
10.059245
10.056782
10.055679
10.054032
10.052031
10.049614
10.046718
10.043266
10.039184
10.034435
10.028971
10.022642
10.015478
10.008167
10.003042
9.9995341
9.9972812
9.9962681
9.997922
10.005742
10.012792
1541.5735
1970.8762
1034.8347
624.56825
430.73669
312.10452
228.19945
178.66751
140.34484
116.82535
98.013351
84.489157
73.373357
64.454439
57.066394
50.912284
45.726023
41.327874
37.572357
34.34015
31.541051
29.107702
26.978146
25.100816
23.441788
21.967873
20.651952
19.473953
18.416877
17.468809
16.617863
15.851544
15.161532
14.539837
13.980937
13.479502
13.031027
12.631258
12.276074
11.961452
11.683525
11.439523
11.22624
11.039356
10.877854
10.738645
10.618853
10.516284
10.428738
10.354832
10.292401
10.240137
10.196583
10.160605
10.131171
10.107327
10.088328
10.073716
10.063312
10.057023
10.054375
10.052906
10.05096
10.048665
10.045971
10.04282
10.039135
10.034832
10.029865
10.024208
10.017732
10.010396
10.003831
9.999337
9.9964065
9.9946444
9.9939442
9.9957456
10.003057
10.009417
1555.1723
1995.2451
1031.5809
620.74927
425.79197
308.82792
224.57191
176.82638
138.45032
115.7622
97.122411
83.673694
72.608625
63.720047
56.371064
50.253347
45.104341
40.742835
37.017668
33.819911
31.053776
28.652408
26.554806
24.708302
23.078076
21.632024
20.342556
19.189743
18.156107
17.229853
16.399889
15.653363
14.982132
14.377919
13.835293
13.348924
12.914363
12.527442
12.184099
11.880289
11.612397
11.377365
11.17259
10.993846
10.838768
10.705342
10.590798
10.492777
10.40904
10.338498
10.278925
10.229114
10.187634
10.153393
10.125424
10.102811
10.084805
10.070927
10.060979
10.054886
10.05214
10.050285
10.048023
10.045417
10.042429
10.039006
10.035073
10.030542
10.025348
10.019478
10.012893
10.005508
9.9997683
9.9959075
9.9935433
9.9922678
9.9918924
9.9937727
10.00041
10.006579
1567.7904
2018.3844
1022.0008
615.87086
419.13589
305.14179
220.1822
174.5472
136.60715
114.50547
96.098488
82.703621
71.705644
62.8569
55.558074
49.480449
44.376269
40.060267
36.380062
33.225351
30.499861
28.136928
26.076961
24.26579
22.669132
21.255297
19.996288
18.872448
17.865815
16.964516
16.158369
15.43431
14.784399
14.200005
13.675794
13.206435
12.787528
12.414994
12.084929
11.793347
11.536553
11.311347
11.11565
10.944939
10.79699
10.669809
10.561379
10.46826
10.388637
10.321639
10.265072
10.217819
10.178497
10.14605
10.119584
10.098234
10.081257
10.068152
10.058687
10.052808
10.050021
10.047771
10.045179
10.042252
10.038957
10.03525
10.031058
10.026293
10.020875
10.014777
10.008094
10.000993
9.9960192
9.9927873
9.9909687
9.9901738
9.9901616
9.9920751
9.9979818
10.003733
1579.7829
2039.4841
1011.75
609.94937
410.82863
301.04935
215.64398
172.04613
134.63946
113.06963
94.928449
81.571931
70.652525
61.844237
54.60459
48.588335
43.542818
39.283859
35.657344
32.554298
29.87715
27.559436
25.543322
23.773315
22.215282
20.838209
19.613909
18.523044
17.547201
16.674221
15.89452
15.19567
14.569689
14.007494
13.503855
13.053436
12.651893
12.295215
11.979667
11.701359
11.456683
11.242233
11.05631
10.89436
10.754005
10.633224
10.53056
10.442695
10.367769
10.304448
10.251039
10.206416
10.1693
10.138674
10.113721
10.09364
10.077705
10.0654
10.056441
10.05077
10.04796
10.045318
10.04239
10.039136
10.035529
10.031528
10.027072
10.02207
10.016438
10.010123
10.003287
9.9968599
9.992619
9.9900009
9.9887001
9.9883677
9.9887729
9.9907548
9.9959069
10.001065
1592.5067
2059.8844
996.94913
602.37612
401.26242
296.53533
210.90907
169.29625
132.64948
111.45467
93.584528
80.247641
69.410888
60.674886
53.513501
47.57311
42.599787
38.409771
34.847483
31.805568
29.185216
26.919903
24.954069
23.231249
21.717354
20.381453
19.196362
18.142712
17.201645
16.36071
15.608801
14.937931
14.338543
13.800978
13.320097
12.890551
12.50807
12.168689
11.868886
11.604883
11.373206
11.171027
10.995356
10.842562
10.71023
10.596214
10.499532
10.416946
10.346385
10.286869
10.236961
10.195051
10.160167
10.131361
10.107901
10.08907
10.074168
10.062671
10.054243
10.048764
10.045903
10.042883
10.039616
10.036037
10.032117
10.02782
10.023095
10.017855
10.012018
10.005549
9.998554
9.9931329
9.9895888
9.9875612
9.9867487
9.9868446
9.9876602
9.9897399
9.9942634
9.9990303
1604.7002
2078.1985
978.31278
593.92629
391.40595
291.6218
206.10374
166.34661
130.60392
109.63948
92.000691
78.713056
67.984719
59.341949
52.277579
46.430397
41.543763
37.43595
33.949189
30.978184
28.423767
26.218779
24.309554
22.640377
21.176785
19.884836
18.743625
17.731648
16.829463
16.024851
15.306658
14.666451
14.096123
13.585415
13.129225
12.72217
12.360119
12.039118
11.755902
11.506901
11.288557
11.097968
10.933032
10.789759
10.665789
10.559244
10.468525
10.391328
10.325358
10.269532
10.222736
10.183809
10.151201
10.124203
10.102192
10.084567
10.070662
10.05996
10.05209
10.046799
10.043803
10.040427
10.036825
10.032926
10.028697
10.024105
10.019112
10.01364
10.007598
10.001055
9.9944183
9.989818
9.9869394
9.985471
9.9851186
9.9856042
9.9868007
9.9890317
9.993043
9.997382
1616.8457
2090.5952
955.77154
584.90258
381.05069
286.34893
201.30428
163.20117
128.43215
107.52727
90.159328
76.95599
66.360159
57.836348
50.89009
45.154996
40.371383
36.359879
32.96131
30.071303
27.592785
25.457103
23.608656
21.999759
20.593523
19.355274
18.263235
17.297719
16.438677
15.673963
14.992231
14.385233
13.845773
13.363788
12.933903
12.550637
12.210095
11.908296
11.642218
11.408655
11.204141
11.025653
10.871463
10.737756
10.622065
10.522341
10.437585
10.365724
10.304741
10.252722
10.208913
10.172554
10.14244
10.11727
10.096657
10.08017
10.067209
10.057257
10.049959
10.044899
10.041622
10.037914
10.033986
10.029777
10.02525
10.020371
10.01511
10.009419
10.003204
9.9965481
9.990783
9.9869386
9.9846733
9.9837256
9.9838077
9.9846429
9.9861606
9.9885988
9.9923493
9.9964284
1629.0335
2091.7328
929.52045
575.24039
370.31307
280.74436
196.58477
159.77835
126.01226
105.12319
88.031785
74.95776
64.52404
56.147463
49.343324
43.741606
39.079596
35.179319
31.883384
29.082109
26.689858
24.633818
22.860517
21.319989
19.978078
18.799215
17.761661
16.846716
16.034696
15.313297
14.670971
14.099403
13.59077
13.138787
12.736385
12.377793
12.059496
11.777469
11.528838
11.310895
11.120301
10.954765
10.811212
10.686949
10.579619
10.486891
10.407879
10.340964
10.284348
10.236523
10.195715
10.161721
10.133719
10.110577
10.091345
10.075915
10.063835
10.05456
10.0478
10.043065
10.03934
10.035319
10.031077
10.026571
10.021761
10.016609
10.011086
10.005176
9.9988801
9.9923879
9.9876429
9.9844966
9.9827883
9.9823147
9.9828042
9.9839552
9.9857182
9.9883839
9.9920946
9.9960296
1641.3906
2070.1664
899.82441
564.96883
359.23003
274.81361
191.93865
155.94968
123.26644
102.38163
85.587515
72.695027
62.459814
54.263825
47.629713
42.184741
37.665955
33.888815
30.711671
28.020251
25.728437
23.763402
22.074147
20.610224
19.339185
18.225928
17.247892
16.385377
15.623373
14.947853
14.346932
13.812905
13.338213
12.91665
12.542222
12.208567
11.912663
11.650514
11.419185
11.21669
11.039425
10.885449
10.752407
10.637343
10.538207
10.45298
10.379636
10.317478
10.264828
10.22067
10.183195
10.151491
10.125358
10.103952
10.086266
10.071831
10.060566
10.051892
10.045552
10.041077
10.036951
10.032625
10.028086
10.023298
10.018221
10.012817
10.007052
10.000925
9.9945704
9.9888753
9.9849725
9.9824834
9.9812766
9.9812241
9.9820851
9.9835261
9.9854677
9.9883322
9.9922022
9.9961184
1654.0007
2034.9208
868.85611
554.1333
347.85749
268.4688
187.05679
151.68618
120.07949
99.25344
82.791511
70.142115
60.150964
52.175601
45.742896
40.475561
36.123978
32.501312
29.463944
26.898279
24.721385
22.859142
21.263292
19.883858
18.687238
17.644257
16.730295
15.925926
15.215878
14.587885
14.029428
13.533358
13.092466
12.701053
12.354158
12.045141
11.771253
11.528786
11.314468
11.127035
10.962861
10.820018
10.696915
10.590574
10.498918
10.42029
10.353003
10.295439
10.246485
10.205633
10.171082
10.141916
10.117487
10.097613
10.081269
10.067932
10.05741
10.049295
10.043258
10.038921
10.034446
10.029828
10.025008
10.019955
10.014629
10.008993
10.00302
9.9967493
9.9904787
9.9858897
9.9827548
9.9808744
9.9801227
9.9804359
9.9816174
9.9833225
9.9854202
9.9884434
9.9925335
9.9965559
1666.6892
2003.7455
837.30909
542.65731
336.19632
261.16859
182.01091
146.88158
116.33382
95.678044
79.606815
67.273981
57.58211
49.875324
43.671891
38.62765
34.477367
31.034361
28.158772
25.736436
23.687922
21.939591
20.442137
19.154087
18.039837
17.070484
16.222751
15.477677
14.820113
14.239616
13.723589
13.26521
12.857735
12.495571
12.173951
11.888759
11.636018
11.412636
11.215767
11.042703
10.891167
10.758882
10.645019
10.54692
10.462325
10.389699
10.327566
10.274566
10.229462
10.191598
10.159702
10.132773
10.110178
10.091636
10.076509
10.06419
10.054356
10.046787
10.040989
10.036594
10.031833
10.026937
10.021854
10.016554
10.010997
10.005151
9.9990037
9.9926766
9.9871683
9.9833862
9.9809485
9.979631
9.9793003
9.979929
9.9813676
9.9832961
9.9855589
9.9886953
9.9929172
9.9970907
1678.9564
1955.7827
804.68159
530.23498
324.14162
252.67543
176.60096
141.41389
111.9155
91.591704
75.999254
64.070834
54.736863
47.351615
41.44544
36.666753
32.753025
29.516803
26.823335
24.560249
22.647875
21.022988
19.634228
18.441212
17.411113
16.516582
15.735347
15.049434
14.443551
13.907836
13.433016
13.011018
12.635731
12.30211
12.005856
11.743058
11.5102
11.304273
11.122728
10.963287
10.823888
10.702491
10.597168
10.506654
10.428622
10.361593
10.304213
10.25529
10.213756
10.17864
10.149148
10.124293
10.103429
10.086062
10.071976
10.060499
10.051371
10.044336
10.038825
10.034119
10.029126
10.023974
10.018643
10.013113
10.007346
10.001315
9.9950872
9.9889505
9.9844638
9.981365
9.9795104
9.9787011
9.978771
9.9796752
9.9813069
9.9833896
9.9858222
9.9890711
9.9932669
9.9975459
1689.9991
1893.9273
770.40118
516.36248
310.92335
242.81964
170.50426
135.13679
106.72175
86.936999
71.946865
60.518632
51.638199
44.657636
39.104368
34.635107
30.991512
27.98522
25.486364
23.395069
21.631924
20.135435
18.857703
17.76089
16.814579
15.993555
15.276684
14.646424
14.090999
13.599552
13.163696
12.776121
12.431071
12.123925
11.850954
11.60888
11.394516
11.204947
11.037785
10.890795
10.762137
10.650202
10.553592
10.469947
10.3979
10.335991
10.282936
10.237624
10.1991
10.166813
10.139434
10.116394
10.097058
10.080939
10.067774
10.057018
10.048442
10.041831
10.036569
10.031546
10.026348
10.020973
10.015414
10.009667
10.003716
9.9975285
9.9912489
9.9860304
9.9823048
9.9798106
9.9784165
9.9780243
9.9784832
9.9796309
9.9814124
9.9835772
9.9861189
9.9894824
9.9936351
9.9979143
1698.6082
1836.0788
733.50781
500.43095
296.81349
231.38794
163.24808
127.88518
100.68228
81.692932
67.453448
56.66718
48.355077
41.857495
36.711599
32.58756
29.239889
26.476754
24.187975
22.274699
20.663247
19.296302
18.129021
17.126363
16.260705
15.509561
14.852555
14.276311
13.767883
13.317353
12.917602
12.561884
12.244887
11.962266
11.710598
11.487183
11.289563
11.11479
10.960777
10.825355
10.706672
10.60377
10.514268
10.436893
10.370209
10.312923
10.263815
10.221861
10.186205
10.156108
10.130638
10.109192
10.091214
10.076232
10.0639
10.053786
10.045651
10.039317
10.034205
10.028919
10.023533
10.017972
10.012218
10.006262
10.000142
9.9939483
9.9879383
9.9836601
9.9806319
9.978692
9.9776781
9.9775476
9.978377
9.9797325
9.9816353
9.9838536
9.986461
9.9898988
9.9940075
9.9981877
1702.0062
1775.1075
693.77211
480.7074
281.59078
218.06112
154.36497
119.53617
93.813259
75.921701
62.614725
52.63258
44.989063
39.039879
34.34177
30.584911
27.542684
25.036451
22.959898
21.224557
19.762376
18.521201
17.460185
16.547277
15.757221
15.07001
14.469478
13.942071
13.476808
13.063546
12.696426
12.369482
12.077917
11.817718
11.585542
11.378782
11.196064
11.034389
10.891986
10.767022
10.657696
10.562277
10.47934
10.407525
10.345577
10.292363
10.246784
10.207725
10.174714
10.146599
10.122784
10.102697
10.085876
10.071931
10.060342
10.050821
10.043089
10.036915
10.031797
10.026302
10.02073
10.015004
10.009108
10.003
9.9966814
9.990401
9.9853779
9.9817511
9.9793219
9.9778993
9.9773051
9.9772879
9.9783969
9.9799257
9.9819219
9.9841965
9.9868617
9.9903212
9.9943696
9.9983887
1695.4377
1708.3556
650.65812
454.86408
265.07873
202.50617
143.63586
110.13929
86.285836
69.765091
57.623584
48.565065
41.659601
36.298781
32.070152
28.688883
25.951167
23.699413
21.829961
20.265357
18.944569
17.821226
16.85904
16.02943
15.309743
14.682006
14.131872
13.64759
13.219427
12.839499
12.501288
12.199723
11.930555
11.690294
11.475982
11.285081
11.115412
10.965168
10.83261
10.716191
10.614436
10.525832
10.4487
10.381859
10.324085
10.274354
10.231998
10.195661
10.164638
10.138281
10.115941
10.097025
10.081255
10.06804
10.057081
10.048073
10.040776
10.034775
10.029415
10.023778
10.018027
10.012127
10.00609
9.9999261
9.9936806
9.9876259
9.9833685
9.9802984
9.9783108
9.9772444
9.9769847
9.977441
9.9785041
9.9801706
9.9822253
9.9845613
9.9872999
9.9907536
9.9947009
9.9985216
1672.8788
1630.6684
604.40459
422.19257
247.30382
184.55449
131.3194
100.04551
78.461787
63.551908
52.699712
44.626781
38.48627
33.723826
29.965148
26.952931
24.506677
22.496012
20.820333
19.413263
18.221485
17.204579
16.330987
15.575728
14.918777
14.344024
13.838676
13.392855
12.997917
12.646917
12.33386
12.054262
11.80432
11.580927
11.381465
11.20369
11.04563
10.905506
10.781699
10.672714
10.577245
10.494467
10.422371
10.359888
10.305907
10.259418
10.21951
10.185353
10.156088
10.131156
10.110148
10.092317
10.077274
10.064671
10.054196
10.045611
10.038551
10.032683
10.027153
10.021412
10.015538
10.009492
10.003273
9.9969252
9.9906831
9.985571
9.981848
9.9792686
9.9776621
9.97691
9.9768132
9.9775304
9.9787164
9.9804387
9.9825184
9.9848966
9.9877081
9.9911623
9.9950053
9.9986393
1626.18
1538.0211
556.20695
383.47515
229.38105
164.517
118.13013
89.888244
70.794405
57.598912
48.06069
40.971904
35.581127
31.395908
28.084989
25.42156
23.247374
21.450093
19.948198
18.680728
17.602278
16.678057
15.880988
15.189636
14.586727
14.058014
13.591047
13.177886
12.810841
12.484462
12.192765
11.93182
11.698214
11.489158
11.302293
11.135595
10.987281
10.855746
10.739512
10.637205
10.547534
10.469277
10.401257
10.342186
10.291091
10.247005
10.209116
10.176872
10.149214
10.125604
10.105503
10.088462
10.074061
10.061932
10.051877
10.043506
10.036592
10.030761
10.025072
10.019234
10.013282
10.007187
10.000942
9.9945976
9.988461
9.9839937
9.980727
9.9785412
9.977258
9.9767402
9.9766835
9.9776877
9.9789558
9.9807116
9.9827911
9.9851782
9.9880182
9.9914622
9.995246
9.9987192
1547.3734
1434.9231
507.19689
343.49357
205.46093
145.2489
104.99831
80.341627
63.726166
52.209375
43.914715
37.750228
33.050781
29.387921
26.475985
24.120669
22.186699
20.577979
19.225056
18.076984
17.094741
16.248615
15.515328
14.876415
14.316996
13.824938
13.390249
13.004652
12.661425
12.354975
12.080666
11.834849
11.614462
11.416976
11.240247
11.082424
10.941867
10.81708
10.706672
10.609333
10.523838
10.449107
10.38443
10.3282
10.279556
10.237588
10.201482
10.170505
10.143991
10.121297
10.10194
10.085491
10.071663
10.059961
10.05013
10.041917
10.035067
10.029207
10.023355
10.017385
10.011308
10.005113
9.9988142
9.9925391
9.986908
9.9828578
9.9799369
9.9780262
9.9769748
9.9766405
9.9769612
9.9778239
9.9792041
9.9809726
9.9830513
9.985427
9.9882225
9.9915455
9.995196
9.9986259
1439.221
1390.186
461.38682
295.98067
181.75113
127.22127
93.156646
71.901563
57.617931
47.668346
40.47368
35.108652
30.995815
27.768127
25.183721
23.078742
21.339081
19.883132
18.650342
17.598544
16.694092
15.911345
15.230059
14.634044
14.110167
13.647694
13.23774
12.872991
12.547511
12.256828
11.996025
11.761914
11.551689
11.363045
11.194024
11.042932
10.908263
10.788646
10.682801
10.589514
10.507613
10.435953
10.37341
10.319054
10.271938
10.231218
10.196123
10.165993
10.140358
10.118385
10.099637
10.083674
10.070123
10.058664
10.04901
10.040909
10.034104
10.028215
10.022247
10.016164
10.009965
10.003654
9.9972728
9.9910375
9.9858886
9.9821382
9.9794824
9.9777784
9.9768863
9.9766201
9.977099
9.9780321
9.9794414
9.981223
9.9833112
9.9856992
9.9884643
9.9916601
9.99514
9.9985141
1312.7635
1218.8554
421.84144
253.77505
159.76809
112.22238
83.371457
65.093743
52.794332
44.170017
37.88627
33.157735
29.499427
26.602636
24.263425
22.343022
20.744327
19.397735
18.25223
17.269617
16.420866
15.683383
15.039272
14.47408
13.975935
13.534963
13.143138
12.793717
12.481137
12.200804
11.948955
11.722452
11.518714
11.335581
11.171217
11.024031
10.892603
10.775639
10.671932
10.580352
10.499878
10.42978
10.368501
10.315207
10.26898
10.229001
10.194513
10.164836
10.139358
10.117546
10.098913
10.083039
10.069556
10.058144
10.048524
10.040444
10.033651
10.027764
10.021782
10.015668
10.009421
10.003041
9.9965812
9.9903118
9.9853961
9.981802
9.9792888
9.9777109
9.9769508
9.9767705
9.9772508
9.9782301
9.9796492
9.981434
9.9835312
9.9859308
9.9886671
9.9917534
9.9950866
9.9984244
1202.3002
1094.9811
389.58515
223.29518
143.35419
101.19844
76.126036
60.134661
49.343732
41.712033
36.09549
31.828775
28.4974
25.837152
23.672274
21.882376
20.382638
19.111871
18.024981
17.088074
16.275177
15.566004
14.944424
14.397478
13.915046
13.486812
13.105526
12.764818
12.459453
12.18508
11.938108
11.715579
11.515044
11.33446
11.172095
11.026444
10.896167
10.780036
10.676902
10.585668
10.505279
10.434723
10.373039
10.319294
10.272618
10.232202
10.1973
10.167235
10.141398
10.119246
10.100296
10.084128
10.07037
10.058701
10.04884
10.040537
10.033547
10.027527
10.021646
10.0156
10.009448
10.003174
9.9968265
9.9906348
9.985611
9.9819747
9.9794278
9.9778328
9.9770695
9.9768932
9.9773843
9.978359
9.9797748
9.981559
9.9836674
9.9860796
9.9887959
9.9918028
9.9950333
9.9983612
1156.4627
1041.1077
365.76994
206.38458
132.57544
93.694478
70.707411
56.177487
46.391173
39.460671
34.34477
30.440834
27.379794
24.92538
22.920377
21.256714
19.858027
18.669064
17.649018
16.767176
15.999994
15.329073
14.739745
14.220074
13.760179
13.351784
12.987877
12.662555
12.370853
12.108632
11.872457
11.659492
11.467394
11.294211
11.138298
10.998236
10.872767
10.760746
10.661103
10.572816
10.494902
10.426411
10.366429
10.314084
10.26855
10.22906
10.194902
10.165431
10.140061
10.118271
10.099597
10.08363
10.070013
10.058434
10.04862
10.040328
10.033317
10.027251
10.0213
10.015195
10.008984
10.002659
9.9962761
9.9901071
9.9853268
9.9818078
9.9793482
9.9777989
9.9770346
9.9768279
9.9774169
9.9783653
9.9797775
9.9815559
9.9836696
9.9860912
9.988803
9.9917777
9.9949691
9.9983171
37060.034
79713.945
39475.047
10034.15
1234.57
612.49828
435.69237
350.69334
288.94248
234.77125
191.56558
158.72224
134.22447
115.994
102.03887
90.688684
81.064165
72.813175
65.728096
59.614407
54.298964
49.64545
45.548475
41.922777
38.703277
35.82547
33.244064
30.919173
28.819011
26.918473
25.196155
23.632992
22.212326
20.919495
19.74298
18.673107
17.701169
16.819449
16.020903
15.299115
14.648496
14.063506
13.539098
13.070713
12.653873
12.284355
11.95834
11.671802
11.421064
11.202778
11.013676
10.850641
10.710699
10.591328
10.490016
10.404519
10.334426
10.279654
10.240179
10.218638
10.211498
10.209564
10.207606
10.204876
10.201718
10.198165
10.193826
10.187256
10.177969
10.167633
10.152651
10.140264
10.111597
10.096538
10.070244
10.073098
10.028685
10.051786
9.9910775
10.012212
22243.036
69707.342
27804.974
4622.3546
940.88857
532.7657
399.6642
321.69783
263.1821
212.06016
174.08462
145.42766
124.27813
108.46428
96.094102
85.755954
76.902527
69.305215
62.768338
57.103186
52.154933
47.806114
43.964423
40.554017
37.513096
34.788626
32.339188
30.127481
28.125435
26.310467
24.66283
23.164853
21.801192
20.55835
19.426021
18.395254
17.457922
16.606856
15.835446
15.137691
14.508366
13.942165
13.434345
12.980586
12.576585
12.218321
11.902146
11.624139
11.380798
11.168905
10.985292
10.826949
10.691005
10.575047
10.476645
10.39357
10.324993
10.271549
10.233302
10.213004
10.206477
10.204723
10.202797
10.200131
10.197058
10.193584
10.189578
10.183707
10.175091
10.165191
10.150757
10.138498
10.11066
10.095911
10.069664
10.072851
10.0285
10.05212
9.9915917
10.012712
24176.071
49348.747
16448.354
2359.3364
832.79281
506.36305
388.11617
306.44966
250.73938
201.37259
166.63107
139.50946
119.76129
104.84919
93.058955
83.11417
74.615585
67.332313
61.059142
55.613658
50.851445
46.662414
42.958588
39.667308
36.727798
34.092801
31.722149
29.579494
27.638787
25.878362
24.279163
22.824192
21.498778
20.290012
19.18828
18.184936
17.272175
16.443139
15.691451
15.011354
14.39784
13.845721
13.350459
12.907874
12.513767
12.164252
11.855791
11.584527
11.347085
11.140331
10.961166
10.806657
10.674026
10.56095
10.464924
10.383889
10.31661
10.264192
10.226888
10.207538
10.201469
10.199873
10.197996
10.195408
10.192423
10.189032
10.185172
10.180012
10.1721
10.162659
10.148802
10.136679
10.109742
10.095201
10.069016
10.072436
10.028281
10.052384
9.992182
10.01331
32002.473
27482.414
8499.1277
1496.9503
760.90601
482.71622
374.4955
291.56691
239.54752
190.84143
159.62807
133.68203
115.4384
101.3733
90.157625
80.602789
72.451036
65.462808
59.436071
54.196555
49.608791
45.569282
41.994299
38.814416
35.972086
33.419453
31.122505
29.045015
27.162494
25.453971
23.901056
22.487352
21.198804
20.023033
18.951074
17.974514
17.085855
16.278515
15.546324
14.88375
14.285978
13.747923
13.265246
12.833888
12.449748
12.10907
11.808417
11.543991
11.312544
11.111022
10.936394
10.785805
10.656635
10.546418
10.45284
10.373898
10.308109
10.256738
10.220411
10.202008
10.196423
10.194991
10.193167
10.190663
10.187771
10.184467
10.180668
10.176066
10.168889
10.159934
10.14668
10.134707
10.108692
10.094388
10.068297
10.071938
10.028033
10.05259
9.9928283
10.013966
36405.202
20123.697
5457.7987
1269.5079
723.11935
461.71705
363.67606
279.18785
231.23763
182.71071
154.55215
129.05279
112.13118
98.596425
87.808908
78.545473
70.668762
63.91053
58.076579
52.999457
48.550633
44.631297
41.160702
38.071797
35.30899
32.827018
30.589965
28.567403
26.734376
25.070323
23.557357
22.179537
20.923285
19.776637
18.731162
17.778563
16.91161
16.12393
15.409509
14.763001
14.179742
13.654715
13.183761
12.762908
12.388135
12.055801
11.76255
11.504629
11.278912
11.082407
10.912148
10.765361
10.639508
10.532082
10.44089
10.363991
10.299783
10.249399
10.214009
10.196373
10.191374
10.190096
10.188332
10.185919
10.183123
10.179907
10.176193
10.171904
10.165488
10.157044
10.144418
10.13261
10.107523
10.093482
10.067505
10.071357
10.027764
10.052741
9.9935155
10.014611
38525.498
16964.291
3886.5643
1187.2019
698.31338
442.14704
355.74953
268.99081
224.70298
175.98403
150.50084
125.06079
109.37785
96.176585
85.7632
76.742701
69.103045
62.539005
56.869178
51.931226
47.602156
43.786802
40.406846
37.397236
34.70416
32.28375
30.100188
28.126336
26.337317
24.713046
23.235996
21.890595
20.663674
19.543612
18.522449
17.591936
16.745096
15.975719
15.277918
14.646508
14.076945
13.564264
13.104471
12.693655
12.327867
12.003565
11.717462
11.465844
11.245701
11.054094
10.888126
10.745134
10.622455
10.517775
10.428942
10.354067
10.29155
10.242117
10.207645
10.190817
10.186332
10.185187
10.183491
10.181172
10.178475
10.175349
10.171719
10.167545
10.161883
10.153978
10.142003
10.130377
10.106198
10.092481
10.066636
10.070685
10.027479
10.052838
9.9942277
10.015176
39861.279
14170.322
3107.0151
1136.5506
680.95079
428.03358
349.92461
260.63556
219.55831
170.52912
147.24355
121.65616
107.09532
94.073925
83.988198
75.16424
67.726524
61.325766
55.795279
50.97625
46.750197
43.024763
39.723565
36.783183
34.151245
31.785187
29.65053
27.718759
25.968791
24.380148
22.935437
21.619367
20.419111
19.323338
18.324502
17.414346
16.586139
15.833793
15.151523
14.534287
13.977635
13.476637
13.027452
12.626211
12.269024
11.952442
11.673231
11.427711
11.212983
11.026166
10.864467
10.725058
10.60551
10.503534
10.417029
10.344155
10.283393
10.234907
10.201335
10.185344
10.181294