/*--------------------------------*- C++ -*----------------------------------*\
| =========                 |                                                 |
| \\      /  F ield         | OpenFOAM: The Open Source CFD Toolbox           |
|  \\    /   O peration     | Version:  2512                                  |
|   \\  /    A nd           | Website:  www.openfoam.com                      |
|    \\/     M anipulation  |                                                 |
\*---------------------------------------------------------------------------*/
FoamFile
{
    version     2.0;
    format      ascii;
    arch        "LSB;label=32;scalar=64";
    class       volScalarField;
    location    "0.146";
    object      p;
}
// * * * * * * * * * * * * * * * * * * * * * * * * * * * * * * * * * * * * * //

dimensions      [1 -1 -2 0 0 0 0];

internalField   nonuniform List<scalar> 
16000
(
89594.771
89720.665
89732.615
89866.747
89892.965
90019.999
90070.535
90187.004
90260.827
90371.735
90463.767
90574.649
90680.735
90795.971
90913.116
91035.73
91162.431
91293.826
91429.795
91570.429
91715.74
91865.737
92020.404
92179.701
92343.562
92511.895
92684.576
92861.45
93042.329
93226.99
93415.178
93606.599
93800.928
93997.803
94196.831
94397.59
94599.627
94802.471
95005.626
95208.586
95410.835
95611.854
95811.128
96008.15
96202.429
96393.497
96580.91
96764.256
96943.16
97117.281
97286.324
97450.031
97608.19
97760.628
97907.216
98047.863
98182.515
98311.157
98433.801
98550.494
98661.31
98766.342
98865.708
98959.541
99047.992
99131.224
99209.413
99282.744
99351.414
99415.625
99475.584
99531.512
99583.651
99632.21
99677.359
99719.582
99762.888
99777.647
99876.63
99786.187
89226.604
89369.485
89378.888
89525.205
89553.106
89691.133
89744.126
89871.943
89949.681
90070.771
90169.28
90289.183
90403.671
90527.859
90654.357
90786.553
90923.249
91064.933
91211.528
91363.087
91519.61
91681.077
91847.442
92018.631
92194.539
92375.031
92559.936
92749.051
92942.131
93138.9
93339.038
93542.192
93747.969
93955.944
94165.657
94376.621
94588.324
94800.235
95011.809
95222.493
95431.735
95638.989
95843.722
96045.421
96243.6
96437.804
96627.615
96812.658
96992.598
97167.148
97336.067
97499.158
97656.272
97807.301
97952.178
98090.875
98223.399
98349.787
98470.103
98584.441
98692.911
98795.642
98892.778
98984.478
99070.908
99152.244
99228.669
99300.37
99367.541
99430.379
99489.086
99543.878
99594.968
99642.525
99686.864
99728.982
99766.657
99797.058
99866.013
99804.488
88891.293
89049.641
89058.838
89218.399
89246.467
89398.233
89453.014
89593.167
89675.86
89807.511
89913.859
90043.421
90167.555
90301.693
90438.716
90581.661
90729.536
90882.703
91041.097
91204.733
91373.582
91547.589
91726.671
91910.714
92099.567
92293.047
92490.928
92692.948
92898.799
93108.136
93320.568
93535.667
93752.964
93971.958
94192.115
94412.876
94633.663
94853.884
95072.943
95290.248
95505.214
95717.279
95925.904
96130.584
96330.855
96526.295
96716.531
96901.239
97080.15
97253.043
97419.753
97580.158
97734.187
97881.81
98023.033
98157.899
98286.482
98408.879
98525.209
98635.612
98740.241
98839.259
98932.837
99021.155
99104.395
99182.744
99256.389
99325.518
99390.32
99450.985
99507.708
99560.685
99610.104
99656.151
99699.252
99739.766
99775.373
99811.278
99861.343
99822.475
88592.873
88762.071
88771.951
88946.942
88974.481
89142.535
89199.597
89354.075
89442.621
89586.359
89701.996
89842.537
89977.894
90123.383
90272.38
90427.469
90587.868
90753.819
90925.264
91102.187
91284.529
91472.202
91665.085
91863.016
92065.793
92273.17
92484.855
92700.511
92919.75
93142.14
93367.203
93594.419
93823.229
94053.044
94283.245
94513.195
94742.246
94969.749
95195.061
95417.556
95636.635
95851.732
96062.322
96267.93
96468.135
96662.571
96850.932
97032.973
97208.509
97377.408
97539.596
97695.046
97843.777
97985.846
98121.345
98250.393
98373.135
98489.732
98600.36
98705.204
98804.46
98898.323
98986.99
99070.658
99149.523
99223.778
99293.613
99359.212
99420.757
99478.428
99532.404
99582.856
99629.955
99673.916
99715.087
99753.348
99787.727
99824.283
99862.902
99839.503
88334.311
88518.356
88525.114
88718.766
88745.222
88931.542
88990.767
89161.317
89256.926
89414.112
89540.757
89693.395
89841.403
89999.397
90161.527
90329.889
90503.919
90683.774
90869.401
91060.755
91257.743
91460.232
91668.045
91880.954
92098.682
92320.901
92547.225
92777.218
93010.389
93246.198
93484.06
93723.345
93963.391
94203.508
94442.988
94681.115
94917.176
95150.473
95380.329
95606.105
95827.205
96043.087
96253.267
96457.329
96654.922
96845.767
97029.654
97206.439
97376.044
97538.449
97693.687
97841.838
97983.022
98117.392
98245.128
98366.43
98481.511
98590.596
98693.914
98791.695
98884.169
98971.561
99054.087
99131.959
99205.381
99274.548
99339.645
99400.852
99458.339
99512.273
99562.81
99610.097
99654.296
99695.622
99734.248
99769.921
99802.826
99837.695
99868.271
99856.817
88118.529
88320.099
88325.023
88539.567
88565.071
88771.659
88833.284
89021.653
89125.529
89296.835
89435.642
89600.849
89762.427
89933.797
90110.078
90292.879
90481.81
90676.941
90878.193
91085.46
91298.586
91517.359
91741.516
91970.733
92204.628
92442.756
92684.613
92929.637
93177.208
93426.655
93677.266
93928.288
94178.945
94428.443
94675.987
94920.789
95162.086
95399.149
95631.293
95857.895
96078.396
96292.311
96499.235
96698.844
96890.896
97075.229
97251.758
97420.47
97581.415
97734.699
97880.479
98018.95
98150.338
98274.894
98392.886
98504.589
98610.286
98710.254
98804.77
98894.101
98978.506
99058.231
99133.505
99204.547
99271.563
99334.745
99394.271
99450.308
99503.012
99552.531
99598.996
99642.529
99683.289
99721.446
99756.982
99789.776
99820.749
99852.451
99876.9
99875.285
87945.666
88168.079
88170.312
88409.462
88434.066
88664.898
88729.553
88937.171
89049.217
89234.097
89386.182
89564.801
89741.51
89927.974
90120.285
90319.54
90525.432
90737.923
90956.862
91182.055
91413.249
91650.129
91892.313
92139.349
92390.72
92645.836
92904.045
93164.628
93426.815
93689.784
93952.68
94214.62
94474.712
94732.067
94985.814
95235.116
95479.186
95717.299
95948.804
96173.132
96389.807
96598.449
96798.774
96990.594
97173.815
97348.426
97514.497
97672.166
97821.63
97963.134
98096.965
98223.433
98342.872
98455.624
98562.037
98662.455
98757.215
98846.642
98931.048
99010.726
99085.953
99156.987
99224.063
99287.4
99347.197
99403.636
99456.883
99507.089
99554.391
99598.916
99640.761
99680.032
99716.881
99751.385
99783.379
99813.052
99841.654
99869.234
99888.447
99895.658
87810.154
88057.057
88055.103
88323.85
88345.261
88602.473
88670.226
88897.036
89021.069
89222.341
89391.597
89586.613
89781.585
89986.133
90197.316
90415.811
90641.347
90873.786
91112.889
91358.353
91609.804
91866.787
92128.772
92395.145
92665.215
92938.215
93213.31
93489.602
93766.144
94041.951
94316.02
94587.34
94854.917
95117.784
95375.03
95625.806
95869.348
96104.985
96332.154
96550.403
96759.394
96958.906
97148.828
97329.155
97499.974
97661.46
97813.859
97957.476
98092.663
98219.808
98339.321
98451.626
98557.149
98656.314
98749.534
98837.207
98919.712
98997.404
99070.616
99139.655
99204.807
99266.328
99324.45
99379.381
99431.31
99480.403
99526.806
99570.649
99612.051
99651.105
99687.882
99722.476
99755.015
99785.446
99813.54
99839.896
99865.629
99888.262
99903.121
99918.615
87711.17
87986.516
87980.256
88285.227
88301.055
88587.134
88660.897
88909.965
89050.993
89270.921
89460.838
89675.044
89891.254
90116.923
90349.94
90590.632
90838.699
91093.876
91355.794
91624.002
91897.958
92177.026
92460.476
92747.487
93037.153
93328.491
93620.449
93911.927
94201.789
94488.883
94772.067
95050.222
95322.283
95587.255
95844.235
96092.428
96331.16
96559.891
96778.218
96985.877
97182.735
97368.79
97544.154
97709.042
97863.759
98008.681
98144.24
98270.914
98389.204
98499.629
98602.712
98698.968
98788.902
98872.997
98951.713
99025.48
99094.701
99159.745
99220.951
99278.625
99333.046
99384.46
99433.084
99479.112
99522.71
99564.023
99603.175
99640.272
99675.406
99708.637
99740.012
99769.617
99797.532
99823.559
99847.511
99870.424
99892.798
99909.839
99921.152
99944.531
87652.159
87960.673
87951.019
88293.181
88308.375
88627.164
88712.512
88986.817
89147.73
89388.378
89602.604
89839.201
90079.929
90330.137
90588.317
90854.487
91128.246
91409.157
91696.67
91990.128
92288.761
92591.692
92897.935
93206.408
93515.944
93825.304
94133.199
94438.311
94739.318
95034.919
95323.866
95604.982
95877.194
96139.555
96391.257
96631.653
96860.255
97076.748
97280.976
97472.94
97652.78
97820.766
97977.27
98122.757
98257.756
98382.85
98498.652
98605.793
98704.907
98796.621
98881.543
98960.257
99033.316
99101.239
99164.506
99223.56
99278.806
99330.609
99379.295
99425.157
99468.454
99509.412
99548.225
99585.061
99620.06
99653.342
99685.003
99715.124
99743.764
99770.952
99796.715
99821.132
99844.2
99865.593
99885.293
99904.701
99923.264
99934.35
99942.969
99973.655
87640.128
87988.031
87974.38
88357.246
88376.345
88731.353
88831.335
89132.968
89319.543
89583.751
89826.549
90089.508
90358.547
90637.178
90924.259
91219.519
91522.377
91832.163
92148.066
92469.146
92794.331
93122.427
93452.128
93782.035
94110.677
94436.538
94758.08
95073.78
95382.162
95681.832
95971.507
96250.049
96516.488
96770.041
97010.125
97236.36
97448.564
97646.747
97831.088
98001.923
98159.715
98305.034
98438.532
98560.918
98672.941
98775.365
98868.956
98954.469
99032.635
99104.153
99169.684
99229.844
99285.205
99336.292
99383.582
99427.507
99468.45
99506.756
99542.725
99576.621
99608.673
99639.077
99667.996
99695.565
99721.897
99747.079
99771.181
99794.252
99816.319
99837.379
99857.453
99876.596
99894.696
99911.347
99926.82
99942.709
99957.046
99962.146
99969.135
100006.37
87681.873
88076.6
88059.127
88490.16
88514.416
88908.827
89028.221
89359.09
89577.066
89868.206
90144.057
90438
90739.707
91051.168
91371.351
91699.66
92035.224
92377.04
92723.936
93074.588
93427.53
93781.174
94133.83
94483.74
94829.106
95168.131
95499.063
95820.231
96130.095
96427.28
96710.616
96979.156
97232.198
97469.29
97690.226
97895.029
98083.937
98257.374
98415.918
98560.278
98691.253
98809.714
98916.569
99012.746
99099.167
99176.738
99246.331
99308.779
99364.862
99415.311
99460.797
99501.934
99539.282
99573.342
99604.562
99633.339
99660.022
99684.915
99708.28
99730.343
99751.293
99771.288
99790.454
99808.892
99826.68
99843.874
99860.513
99876.616
99892.173
99907.162
99921.598
99935.493
99948.611
99960.549
99971.953
99984.333
99994.053
99993.333
99999.854
100043.14
87778.138
88228.39
88207.582
88693.346
88726.178
89164.433
89311.157
89674.04
89930.836
90253.906
90568.17
90898.729
91238.297
91587.644
91945.604
92311.154
92683
93059.671
93439.51
93820.704
94201.3
94579.246
94952.423
95318.697
95675.966
96022.217
96355.586
96674.404
96977.248
97262.973
97530.736
97780.004
98010.548
98222.426
98415.956
98591.684
98750.341
98892.811
99020.086
99133.232
99233.358
99321.585
99399.025
99466.761
99525.83
99577.214
99621.836
99660.546
99694.129
99723.298
99748.697
99770.904
99790.433
99807.739
99823.217
99837.216
99850.03
99861.914
99873.081
99883.709
99893.944
99903.899
99913.661
99923.294
99932.84
99942.323
99951.751
99961.11
99970.36
99979.466
99988.438
99997.218
100005.45
100012.85
100020.47
100029.35
100034.15
100028.17
100035.5
100083.69
87935.367
88451.509
88428.335
88976.468
89023.948
89510.211
89693.49
90091.927
90395.421
90756.814
91115.631
91489.334
91872.724
92265.5
92666.085
93072.866
93483.957
93897.272
94310.543
94721.356
95127.195
95525.502
95913.735
96289.448
96650.363
96994.44
97319.941
97625.479
97910.043
98173.013
98414.149
98633.568
98831.709
99009.285
99167.232
99306.664
99428.815
99535.001
99626.578
99704.903
99771.313
99827.099
99873.491
99911.644
99942.635
99967.454
99987.005
100002.11
100013.5
100021.84
100027.7
100031.6
100033.98
100035.23
100035.68
100035.61
100035.26
100034.82
100034.44
100034.27
100034.38
100034.86
100035.75
100037.07
100038.83
100041.02
100043.63
100046.6
100049.87
100053.4
100057.19
100061.09
100064.65
100067.84
100072.03
100077.41
100077.15
100066.91
100076.31
100127.61
88160.488
88755.594
88732.542
89351.36
89420.898
89959.143
90190.227
90629.371
90988.59
91396.75
91807.578
92231.914
92665.637
93107.388
93554.92
94005.851
94457.524
94907.086
95351.523
95787.737
96212.627
96623.186
97016.605
97390.37
97742.346
98070.845
98374.66
98653.083
98905.885
99133.285
99335.897
99514.669
99670.814
99805.747
99921.017
100018.25
100099.12
100165.25
100218.27
100259.7
100290.99
100313.51
100328.5
100337.1
100340.35
100339.17
100334.41
100326.79
100316.97
100305.51
100292.9
100279.57
100265.88
100252.14
100238.59
100225.45
100212.89
100201.03
100189.98
100179.81
100170.58
100162.3
100154.99
100148.62
100143.18
100138.63
100134.92
100131.96
100129.69
100128.06
100127.04
100126.37
100125.59
100125.02
100126.18
100128.02
100122.72
100109.66
100122.3
100174.46
88460.531
89150.099
89129.613
89828.803
89931.858
90527.919
90821.374
91309.618
91735.045
92200.22
92671.379
93153.973
93644.087
94139.243
94636.265
95131.771
95622.12
96103.521
96572.141
97024.239
97456.312
97865.228
98248.347
98603.608
98929.579
99225.466
99491.092
99726.842
99933.591
100112.61
100265.5
100394.06
100500.26
100586.11
100653.65
100704.9
100741.76
100766.07
100779.53
100783.71
100780.07
100769.91
100754.39
100734.58
100711.39
100685.64
100658.05
100629.24
100599.74
100570
100540.42
100511.31
100482.94
100455.53
100429.25
100404.24
100380.6
100358.4
100337.69
100318.49
100300.79
100284.59
100269.85
100256.52
100244.56
100233.89
100224.44
100216.11
100208.82
100202.52
100197.13
100192.28
100187.62
100183.82
100182.3
100180.6
100170.49
100156.17
100173.1
100223.4
88843.687
89646.092
89632.874
90427.471
90580.475
91244.14
91617.063
92165.231
92667.653
93200.463
93739.938
94287.317
94838.1
95388.411
95933.765
96469.472
96990.721
97492.791
97971.251
98422.153
98842.203
99228.876
99580.479
99896.156
100175.85
100420.2
100630.48
100808.41
100956.11
101075.9
101170.27
101241.75
101292.84
101325.97
101343.46
101347.45
101339.94
101322.77
101297.58
101265.85
101228.9
101187.91
101143.88
101097.72
101050.2
101001.99
100953.64
100905.64
100858.4
100812.25
100767.46
100724.25
100682.8
100643.23
100605.64
100570.1
100536.64
100505.27
100475.99
100448.77
100423.58
100400.35
100379.03
100359.53
100341.78
100325.69
100311.15
100298.05
100286.32
100275.89
100266.61
100258.05
100250.04
100243.58
100239.7
100234.51
100220.11
100205.81
100227.64
100274.2
89327.243
90268.624
90273.499
91182.921
91404.067
92145.853
92616.05
93235.83
93825.351
94435.852
95050.375
95666.541
96278.324
96879.926
97465.18
98028.025
98562.761
99064.344
99528.622
99952.486
100333.95
100672.15
100967.23
101220.28
101433.11
101608.11
101748.06
101856.02
101935.15
101988.59
102019.45
102030.67
102024.99
102004.98
101972.95
101931
101881.01
101824.64
101763.36
101698.45
101631.03
101562.04
101492.32
101422.57
101353.38
101285.24
101218.57
101153.7
101090.91
101030.4
100972.33
100916.84
100864
100813.86
100766.45
100721.76
100679.78
100640.45
100603.74
100569.57
100537.87
100508.54
100481.5
100456.64
100433.87
100413.06
100394.11
100376.88
100361.32
100347.33
100334.66
100322.92
100312.15
100303.57
100297.57
100289.13
100271.41
100257.99
100284.5
100327.17
89941.467
91059.802
91094.478
92137.626
92446.384
93275.181
93862.086
94567.509
95253.988
95950.638
96643.279
97325.803
97989.867
98627.594
99231.505
99795.056
100312.95
100781.33
101197.91
101561.88
101873.82
102135.42
102349.35
102518.89
102647.79
102740.03
102799.64
102830.58
102836.67
102821.45
102788.22
102739.95
102679.35
102608.79
102530.4
102446.02
102357.25
102265.49
102171.92
102077.56
101983.28
101889.79
101797.69
101707.49
101619.59
101534.32
101451.93
101372.62
101296.54
101223.78
101154.41
101088.47
101025.94
100966.82
100911.06
100858.6
100809.37
100763.28
100720.25
100680.16
100642.92
100608.41
100576.5
100547.09
100520.05
100495.24
100472.55
100451.85
100433.06
100416.06
100400.55
100386.18
100373.29
100363.05
100355.08
100343.76
100324.16
100312.65
100342.83
100381.41
90720.34
92051.577
92130.85
93328.652
93758.279
94686.355
95411.775
96219.122
97009.24
97792.937
98555.349
99286.774
99977.035
100617.51
101201.34
101723.75
102182.11
102575.86
102906.24
103175.96
103388.87
103549.57
103663.11
103734.69
103769.5
103772.49
103748.35
103701.38
103635.45
103554.07
103460.3
103356.85
103246.06
103129.96
103010.29
102888.52
102765.9
102643.49
102522.16
102402.63
102285.51
102171.28
102060.32
101952.93
101849.35
101749.75
101654.23
101562.89
101475.73
101392.79
101314.01
101239.37
101168.79
101102.2
101039.48
100980.55
100925.28
100873.56
100825.26
100780.25
100738.39
100699.55
100663.6
100630.39
100599.8
100571.68
100545.89
100522.33
100500.91
100481.45
100463.62
100447.22
100432.78
100421.32
100411.57
100397.81
100377.58
100369.23
100402.15
100435.61
91695.642
93292.668
93453.07
94822.582
95418.755
96461.561
97341.861
98259.997
99145.853
99996.883
100796.83
101534.55
102200.93
102789.98
103298.81
103727.35
104077.97
104354.94
104563.87
104711.21
104803.77
104848.44
104851.85
104820.23
104759.33
104674.3
104569.72
104449.63
104317.51
104176.37
104028.79
103876.94
103722.67
103567.52
103412.76
103259.46
103108.49
102960.56
102816.22
102675.93
102540.04
102408.8
102282.41
102161
102044.63
101933.36
101827.16
101726.02
101629.87
101538.62
101452.2
101370.47
101293.33
101220.64
101152.25
101088.04
101027.84
100971.51
100918.9
100869.85
100824.22
100781.85
100742.59
100706.3
100672.82
100642
100613.73
100587.89
100564.38
100542.96
100523.33
100505.45
100490.01
100477.65
100466.36
100450.81
100431.06
100426.57
100460.85
100487.81
92949.318
94881.8
95167.971
96729.904
97539.551
98703.659
99731.464
100742.13
101683.65
102547.2
103319.17
103992.22
104563.23
105033.13
105406.14
105688.93
105889.72
106017.62
106081.91
106091.68
106055.47
105981.11
105875.58
105745.06
105594.91
105429.71
105253.38
105069.23
104880.01
104688.02
104495.18
104303.04
104112.88
103925.74
103742.43
103563.61
103389.79
103221.37
103058.63
102901.76
102750.91
102606.15
102467.5
102334.94
102208.42
102087.88
101973.2
101864.26
101760.95
101663.1
101570.57
101483.19
101400.8
101323.22
101250.29
101181.83
101117.67
101057.64
101001.57
100949.28
100900.61
100855.41
100813.5
100774.73
100738.96
100706.02
100675.8
100648.19
100623.05
100600.12
100579.18
100560.34
100544.3
100531.26
100518.71
100502.17
100483.92
100482.98
100516.48
100536.7
94610.864
96957.342
97423.708
99174.992
100231.51
101498.44
102617.54
103651.19
104561.91
105343.93
105993.72
106514.13
106912.39
107198.9
107385.86
107486.19
107512.66
107477.34
107391.23
107264.11
107104.51
106919.73
106715.95
106498.35
106271.23
106038.14
105801.98
105565.11
105329.43
105096.49
104867.48
104643.37
104424.9
104212.65
104007.02
103808.32
103616.75
103432.44
103255.43
103085.74
102923.32
102768.1
102619.95
102478.76
102344.38
102216.63
102095.35
101980.35
101871.44
101768.43
101671.11
101579.29
101492.76
101411.34
101334.82
101263
101195.7
101132.73
101073.91
101019.05
100967.98
100920.53
100876.53
100835.82
100798.25
100763.67
100731.97
100703.01
100676.64
100652.61
100630.78
100611.38
100595.02
100581.43
100567.92
100551.15
100535.07
100536.94
100567.96
100582.74
96865.665
99676.21
100383.01
102269.98
103532.32
104839.11
105930.52
106858.96
107612.19
108196.82
108624.63
108912.01
109077.26
109139.03
109115.02
109021.4
108872.36
108680.14
108455.02
108205.58
107938.82
107660.49
107375.18
107086.61
106797.71
106510.82
106227.76
105949.95
105678.48
105414.17
105157.62
104909.28
104669.43
104438.25
104215.83
104002.2
103797.31
103601.07
103413.36
103234.03
103062.91
102899.79
102744.48
102596.76
102456.4
102323.17
102196.85
102077.2
101963.99
101856.99
101755.97
101660.7
101570.96
101486.53
101407.19
101332.74
101262.98
101197.7
101136.71
101079.83
101026.87
100977.66
100932.03
100889.82
100850.87
100815.04
100782.21
100752.26
100724.99
100700.2
100677.82
100658.16
100641.63
100627.57
100613.42
100597.04
100583.51
100587.65
100615.24
100623.92
99958.274
103145.64
104152.3
106097.84
107393.02
108544.96
109444.68
110117.72
110582.81
110867.3
110999.52
111007.13
110915.19
110745.55
110516.63
110243.63
109938.86
109612.2
109271.44
108922.72
108570.83
108219.45
107871.44
107528.95
107193.62
106866.63
106548.88
106240.96
105943.28
105656.09
105379.52
105113.58
104858.22
104613.33
104378.75
104154.29
103939.72
103734.8
103539.29
103352.91
103175.39
103006.46
102845.85
102693.27
102548.44
102411.11
102280.98
102157.81
102041.33
101931.27
101827.4
101729.46
101637.22
101550.45
101468.91
101392.39
101320.69
101253.59
101190.89
101132.41
101077.97
101027.37
100980.46
100937.07
100897.05
100860.27
100826.61
100795.91
100768
100742.7
100720.04
100700.29
100683.65
100669.23
100654.82
100639.42
100628.42
100633.7
100656.96
100661.37
104142.6
107537.81
108739.3
110412.99
111520.64
112332.49
112849.18
113126.11
113208.27
113138.79
112953.99
112683.84
112352.29
111978.11
111575.79
111156.39
110728.29
110297.75
109869.47
109446.88
109032.51
108628.15
108235.07
107854.13
107485.86
107130.58
106788.41
106459.35
106143.3
105840.09
105549.47
105271.18
105004.91
104750.34
104507.14
104274.97
104053.48
103842.32
103641.15
103449.64
103267.43
103094.21
102929.64
102773.41
102625.21
102484.73
102351.68
102225.77
102106.72
101994.26
101888.12
101788.05
101693.8
101605.13
101521.8
101443.6
101370.3
101301.7
101237.6
101177.8
101122.12
101070.38
101022.42
100978.06
100937.18
100899.63
100865.29
100834
100805.6
100779.98
100757.17
100737.39
100720.62
100705.94
100691.69
100677.72
100668.93
100674.04
100692.24
100693.97
109343.15
112687.43
113790.82
114898.97
115493.58
115762.75
115771.34
115592.73
115280.68
114877.23
114413.53
113912.47
113390.64
112859.94
112328.85
111803.33
111287.52
110784.27
110295.44
109822.23
109365.35
108925.12
108501.63
108094.77
107704.32
107329.96
106971.29
106627.89
106299.32
105985.11
105684.79
105397.9
105123.96
104862.52
104613.13
104375.36
104148.78
103932.97
103727.54
103532.09
103346.24
103169.64
103001.92
102842.74
102691.77
102548.68
102413.18
102284.94
102163.7
102049.15
101941.04
101839.09
101743.06
101652.69
101567.75
101488.02
101413.28
101343.32
101277.93
101216.93
101160.13
101107.34
101058.42
101013.19
100971.52
100933.27
100898.31
100866.49
100837.68
100811.79
100788.86
100768.99
100752.04
100737.23
100723.51
100711.22
100704.13
100707.67
100719.9
100720.4
115504.89
117997.47
118595.78
118864.69
118760.48
118424.14
117934.65
117352.26
116717.15
116056.53
115388.41
114724.6
114072.76
113437.73
112822.45
112228.6
111657.01
111107.91
110581.19
110076.45
109593.18
109130.71
108688.38
108265.44
107861.19
107474.91
107105.87
106753.41
106416.85
106095.57
105788.94
105496.38
105217.33
104951.25
104697.62
104455.96
104225.78
104006.64
103798.1
103599.74
103411.16
103231.98
103061.82
102900.33
102747.16
102601.99
102464.49
102334.35
102211.28
102095
101985.22
101881.68
101784.12
101692.3
101605.98
101524.93
101448.94
101377.79
101311.28
101249.22
101191.43
101137.73
101087.96
101041.96
100999.59
100960.71
100925.2
100892.92
100863.75
100837.62
100814.54
100794.51
100777.34
100762.5
100749.47
100738.69
100732.55
100733.92
100740.99
100741.54
122081.84
122515.85
122292.19
121738.48
121003.26
120177.14
119315.72
118450.58
117600.03
116774.14
115978.25
115214.82
114484.61
113787.4
113122.37
112488.39
111884.17
111308.36
110759.6
110236.56
109737.97
109262.62
108809.35
108377.09
107964.82
107571.59
107196.51
106838.74
106497.49
106172.03
105861.65
105565.72
105283.59
105014.7
104758.48
104514.42
104282.01
104060.77
103850.25
103650.03
103459.68
103278.8
103107.03
102943.99
102789.34
102642.73
102503.85
102372.39
102248.03
102130.5
102019.52
101914.82
101816.15
101723.24
101635.88
101553.82
101476.86
101404.79
101337.4
101274.5
101215.9
101161.45
101110.96
101064.3
101021.31
100981.87
100945.84
100913.1
100883.55
100857.12
100833.79
100813.48
100796.03
100781.14
100768.61
100758.82
100752.99
100752.31
100755.51
100756.64
125942.38
125314.62
124395.07
123340.41
122254.12
121180.23
120141.33
119146.64
118199.56
117300.25
116447.39
115638.88
114872.34
114145.31
113455.37
112800.23
112177.76
111585.96
111023
110487.18
109976.95
109490.89
109027.67
108586.1
108165.05
107763.49
107380.47
107015.09
106666.55
106334.05
106016.89
105714.38
105425.9
105150.84
104888.65
104638.78
104400.73
104174.02
103958.2
103752.82
103557.48
103371.76
103195.3
103027.72
102868.67
102717.81
102574.83
102439.4
102311.23
102190.03
102075.52
101967.42
101865.49
101769.47
101679.12
101594.22
101514.55
101439.89
101370.05
101304.83
101244.05
101187.53
101135.11
101086.64
101041.98
101000.99
100963.53
100929.5
100898.8
100871.36
100847.12
100826
100807.83
100792.46
100779.87
100770.31
100764.33
100762.23
100763.23
100764.86
104033.21
103997.31
104023.6
104050.33
104065.5
104057.14
104024.68
103982.94
103935.2
103876.61
103805.06
103723.4
103634.92
103543.71
103450.13
103354.17
103256.07
103156.14
103054.68
102951.93
102848.12
102743.5
102638.26
102532.62
102426.77
102320.88
102215.14
102109.73
102004.81
101900.55
101797.1
101694.62
101593.27
101493.19
101394.54
101297.46
101202.09
101108.59
101017.09
100927.74
100840.68
100756.06
100674
100594.67
100518.19
100444.7
100374.34
100307.23
100243.5
100183.26
100126.61
100073.65
100024.46
99979.102
99937.636
99900.09
99866.474
99836.779
99810.969
99788.979
99770.716
99756.063
99744.884
99737.015
99732.299
99730.466
99731.471
99734.626
99740.766
99747.213
99758.925
99764.933
99785.931
99783.724
99824.047
99795.897
99873.298
99802.014
99927.499
99809.509
103048.51
103042.3
103065.22
103085.93
103088.65
103087.5
103080.26
103066.56
103043.35
103014.57
102979.3
102939.04
102893.24
102842.76
102787.63
102728.39
102665.2
102598.35
102528.12
102454.79
102378.64
102299.95
102219.01
102136.1
102051.49
101965.45
101878.26
101790.17
101701.44
101612.3
101523.01
101433.8
101344.87
101256.47
101168.8
101082.06
100996.47
100912.21
100829.49
100748.5
100669.41
100592.41
100517.67
100445.38
100375.7
100308.8
100244.82
100183.93
100126.26
100071.93
100021.06
99973.758
99930.107
99890.179
99854.026
99821.678
99793.142
99768.402
99747.414
99730.105
99716.372
99706.089
99699.112
99695.269
99694.388
99696.205
99700.637
99707.066
99716.166
99725.586
99739.644
99748.584
99770.984
99771.81
99812.343
99787.962
99865.08
99795.873
99924.395
99802.049
102410.92
102405.68
102405.14
102407.15
102402.56
102397.55
102388.04
102378.29
102363.59
102346.5
102324.28
102299.15
102269.33
102236.11
102198.8
102157.92
102113.43
102065.52
102014.35
101960.09
101902.92
101843.04
101780.66
101715.97
101649.19
101580.53
101510.22
101438.48
101365.52
101291.59
101216.9
101141.69
101066.19
100990.62
100915.23
100840.23
100765.85
100692.32
100619.85
100548.67
100478.98
100411
100344.93
100280.97
100219.33
100160.18
100103.71
100050.09
99999.461
99951.977
99907.762
99866.931
99829.578
99795.78
99765.588
99739.037
99716.13
99696.847
99681.139
99668.924
99660.093
99654.513
99652.032
99652.473
99655.654
99661.315
99669.343
99679.178
99691.372
99703.821
99720.379
99732.192
99756.234
99759.818
99800.979
99779.877
99857.098
99789.772
99921.205
99794.996
101958.59
101946.32
101930.72
101915.12
101900.21
101887.15
101867.29
101849.15
101827.03
101805.68
101780.61
101755.38
101727.1
101697.73
101665.89
101632.26
101596.45
101558.58
101518.59
101476.48
101432.27
101386
101337.71
101287.47
101235.36
101181.49
101125.98
101068.96
101010.58
100951
100890.41
100828.99
100766.93
100704.44
100641.74
100579.03
100516.55
100454.5
100393.12
100332.64
100273.27
100215.23
100158.77
100104.08
100051.39
100000.9
99952.808
99907.29
99864.518
99824.647
99787.815
99754.145
99723.738
99696.675
99673.011
99652.78
99635.985
99622.602
99612.575
99605.817
99602.214
99601.627
99603.899
99608.849
99616.286
99625.954
99637.719
99651.069
99666.463
99681.994
99701.158
99715.808
99741.655
99747.815
99789.913
99771.736
99849.388
99783.742
99917.948
99788.443
101417.79
101401.45
101383.12
101363.85
101343.79
101327.65
101306.93
101290.01
101268.65
101250.25
101228.19
101207.78
101184.65
101161.82
101137.13
101111.63
101084.67
101056.43
101026.71
100995.49
100962.71
100928.33
100892.35
100854.77
100815.6
100774.89
100732.69
100689.07
100644.12
100597.96
100550.71
100502.51
100453.51
100403.89
100353.81
100303.48
100253.08
100202.82
100152.93
100103.61
100055.09
100007.6
99961.368
99916.611
99873.551
99832.401
99793.364
99756.63
99722.376
99690.765
99661.941
99636.032
99613.143
99593.356
99576.729
99563.294
99553.053
99545.976
99542.001
99541.037
99542.964
99547.639
99554.901
99564.566
99576.436
99590.26
99605.89
99622.855
99641.535
99660.202
99682.044
99699.515
99727.275
99735.935
99779.118
99763.66
99841.91
99777.845
99914.703
99782.26
100783.61
100773.66
100764.13
100754.27
100741.53
100734.02
100720.17
100711.61
100697.17
100686.96
100672.02
100659.84
100644.52
100630.27
100614.11
100597.56
100579.75
100561.01
100541.09
100519.99
100497.65
100474.04
100449.13
100422.91
100395.37
100366.51
100336.37
100304.97
100272.37
100238.63
100203.84
100168.1
100131.53
100094.25
100056.41
100018.17
99979.71
99941.202
99902.845
99864.844
99827.41
99790.76
99755.113
99720.691
99687.707
99656.374
99626.893
99599.454
99574.234
99551.398
99531.091
99513.44
99498.549
99486.5
99477.348
99471.123
99467.821
99467.405
99469.809
99474.933
99482.655
99492.827
99505.286
99519.843
99536.298
99554.404
99574.003
99594.663
99616.696
99638.54
99663.103
99683.372
99713.127
99724.276
99768.591
99755.73
99834.663
99772.133
99911.581
99776.314
100158.97
100156.88
100154.86
100154.52
100148.99
100150.1
100143.31
100143.43
100136.45
100135.19
100127.97
100124.49
100117.21
100111.52
100103.6
100095.55
100086.25
100076.26
100065.33
100053.45
100040.6
100026.74
100011.84
99995.876
99978.832
99960.7
99941.482
99921.193
99899.862
99877.531
99854.256
99830.111
99805.18
99779.566
99753.386
99726.771
99699.867
99672.833
99645.842
99619.076
99592.73
99567.003
99542.1
99518.226
99495.585
99474.376
99454.792
99437.017
99421.219
99407.557
99396.171
99387.182
99380.688
99376.764
99375.46
99376.798
99380.766
99387.32
99396.384
99407.852
99421.597
99437.47
99455.301
99474.901
99496.065