/*--------------------------------*- C++ -*----------------------------------*\
| =========                 |                                                 |
| \\      /  F ield         | OpenFOAM: The Open Source CFD Toolbox           |
|  \\    /   O peration     | Version:  2512                                  |
|   \\  /    A nd           | Website:  www.openfoam.com                      |
|    \\/     M anipulation  |                                                 |
\*---------------------------------------------------------------------------*/
FoamFile
{
    version     2.0;
    format      ascii;
    arch        "LSB;label=32;scalar=64";
    class       surfaceScalarField;
    location    "0.146";
    object      phi;
}
// * * * * * * * * * * * * * * * * * * * * * * * * * * * * * * * * * * * * * //

dimensions      [1 0 -1 0 0 0 0];

oriented        oriented;

internalField   nonuniform List<scalar> 
31760
(
-0.00064044184
-0.051026661
0.051667479
-0.0016063603
-0.064449325
0.065415665
-0.0025846989
-0.062909633
0.063887527
-0.0036044589
-0.068707997
0.06972834
-0.0046778171
-0.070270552
0.071344501
-0.0057800539
-0.074616657
0.075719431
-0.0069521448
-0.077492542
0.078665214
-0.0081631947
-0.081537891
0.082749475
-0.0094345094
-0.085141926
0.086413794
-0.010764643
-0.089277377
0.090608047
-0.012150128
-0.093407805
0.094793833
-0.013603132
-0.097828401
0.099281951
-0.015117865
-0.10240737
0.10392265
-0.016702914
-0.10721614
0.10880176
-0.018357638
-0.11223926
0.11389457
-0.020086894
-0.11749515
0.11922501
-0.021893285
-0.12299124
0.12479826
-0.023780026
-0.1287392
0.1306266
-0.025750341
-0.13474999
0.13672099
-0.027807626
-0.1410349
0.14309291
-0.02995531
-0.14760636
0.14975481
-0.032197154
-0.15447634
0.15671899
-0.034536753
-0.16165844
0.1639989
-0.036978017
-0.16916638
0.17160856
-0.03952392
-0.17701469
0.17956158
-0.042179051
-0.1852175
0.18787368
-0.044947311
-0.19379104
0.19656041
-0.047832132
-0.20275192
0.20563793
-0.050837021
-0.21211707
0.21512322
-0.053966035
-0.22190454
0.22503491
-0.057222498
-0.23213327
0.23539118
-0.060609759
-0.24282306
0.24621186
-0.064130654
-0.25399539
0.25751794
-0.067788255
-0.26567137
0.26933074
-0.071584581
-0.27787509
0.28167331
-0.075521324
-0.2906308
0.29456957
-0.079599843
-0.30396423
0.30804492
-0.083820643
-0.3179031
0.32212622
-0.088183562
-0.3324754
0.33684081
-0.092687302
-0.34771262
0.35221904
-0.097329873
-0.36364656
0.368292
-0.10210785
-0.38031104
0.38509209
-0.10701662
-0.39774218
0.40265425
-0.11205034
-0.41597792
0.42101519
-0.11720127
-0.43505872
0.44021346
-0.1224602
-0.45502634
0.46028937
-0.12781555
-0.47592579
0.48128554
-0.13325432
-0.49780359
0.5032471
-0.13876094
-0.52070995
0.52622167
-0.14431706
-0.54469678
0.55025837
-0.14990155
-0.56981861
0.575409
-0.15549084
-0.59613359
0.60172923
-0.1610575
-0.62370213
0.62927562
-0.16657051
-0.65258788
0.65810824
-0.17199533
-0.6828574
0.68829012
-0.17729198
-0.71458126
0.7198864
-0.18241634
-0.74783252
0.75296599
-0.18731895
-0.78268781
0.78760019
-0.19194338
-0.81922769
0.82386258
-0.19622741
-0.85753589
0.86183112
-0.20010091
-0.89769975
0.90158523
-0.20348599
-0.93981025
0.94320812
-0.20629524
-0.98396289
0.98678581
-0.20843124
-1.030257
1.0324076
-0.2097851
-1.0787941
1.0801635
-0.21023583
-1.12968
1.1301473
-0.20964712
-1.1830222
1.1824511
-0.20787349
-1.2389297
1.2371746
-0.20474814
-1.2975202
1.2944145
-0.20008401
-1.3589135
1.3542702
-0.19367861
-1.4232317
1.4168482
-0.18531182
-1.4905955
1.4822517
-0.1747305
-1.561131
1.5505737
-0.1616681
-1.6349662
1.6219289
-0.14580811
-1.7122568
1.6964229
-0.12691093
-1.7931448
1.7742745
-0.1042491
-1.8777795
1.8551437
-0.078434419
-1.9667347
1.9409507
-0.047065372
-2.0584002
2.0270482
-2.157337
2.1225264
-0.00063437474
-0.050391967
-0.001504361
-0.06357899
-0.0024004187
-0.062013777
-0.0033595774
-0.067748466
-0.0043289979
-0.069300819
-0.0053750735
-0.073570214
-0.006437048
-0.076430214
-0.0075787852
-0.080395776
-0.0087463599
-0.08397397
-0.0099886535
-0.088034681
-0.011273471
-0.09212257
-0.012626198
-0.096475236
-0.014036023
-0.10099708
-0.01551257
-0.10573911
-0.017055695
-0.11069562
-0.018669706
-0.1158806
-0.020356723
-0.12130365
-0.022120547
-0.12697477
-0.023964396
-0.13290549
-0.025891865
-0.13910674
-0.027906624
-0.14559086
-0.030011939
-0.15237024
-0.032211928
-0.15945762
-0.034510294
-0.16686713
-0.036911848
-0.17461219
-0.03941942
-0.18270892
-0.042037723
-0.19117166
-0.044770518
-0.20001797
-0.047622118
-0.20926423
-0.050596133
-0.2189292
-0.053696686
-0.2290313
-0.056927161
-0.23959107
-0.060290919
-0.25063001
-0.063791012
-0.26216954
-0.067429933
-0.27423431
-0.071210078
-0.28684866
-0.075132689
-0.30003948
-0.079199342
-0.31383415
-0.083409451
-0.32826283
-0.087762673
-0.34335676
-0.09225746
-0.35914893
-0.096890754
-0.37567469
-0.10165822
-0.39297143
-0.1065548
-0.41107781
-0.11157342
-0.4300363
-0.11670551
-0.44989017
-0.1219408
-0.4706861
-0.12726662
-0.49247303
-0.13266864
-0.51530283
-0.13813022
-0.5392297
-0.14363193
-0.56431099
-0.14915164
-0.59060751
-0.15466405
-0.61818284
-0.16014079
-0.64710373
-0.1655497
-0.67744051
-0.17085443
-0.70926797
-0.17601443
-0.7426633
-0.18098411
-0.77770824
-0.1857121
-0.81448909
-0.1901415
-0.85309511
-0.19420825
-0.89362082
-0.19784093
-0.93616452
-0.20095942
-0.98083043
-0.2034755
-1.027726
-0.20528946
-1.0769642
-0.20629181
-1.1286607
-0.20635674
-1.1829392
-0.20534887
-1.2399183
-0.20311743
-1.2997313
-0.19949375
-1.3625158
-0.19429354
-1.4284092
-0.1873099
-1.4975552
-0.17831648
-1.5700992
-0.16706068
-1.6461956
-0.15327593
-1.7260141
-0.13665887
-1.8097338
-0.11680718
-1.8976028
-0.093695834
-1.9898168
-0.06599908
-2.0860793
-2.188514
-0.00057154738
-0.049820304
-0.0013837005
-0.062766647
-0.0021892662
-0.061207614
-0.003096133
-0.066841432
-0.0039867033
-0.068410051
-0.0049652925
-0.0725914
-0.0059430514
-0.0754522
-0.007006171
-0.079332374
-0.0080869547
-0.082892876
-0.0092415755
-0.086879723
-0.010435074
-0.090928706
-0.011692964
-0.095216953
-0.013005328
-0.099684297
-0.014380946
-0.10436304
-0.015820244
-0.10925584
-0.017326924
-0.1143734
-0.018904303
-0.11972572
-0.020555345
-0.12532314
-0.022284321
-0.13117589
-0.024094052
-0.13729635
-0.025989021
-0.14369518
-0.027972749
-0.15038575
-0.030049112
-0.15738044
-0.032222897
-0.16469248
-0.034497379
-0.17233679
-0.036877782
-0.18032753
-0.039367579
-0.18868081
-0.041971866
-0.19741256
-0.044694239
-0.20654065
-0.047539897
-0.21608225
-0.050512005
-0.2260578
-0.053614958
-0.23648663
-0.056852634
-0.24739074
-0.060227796
-0.25879267
-0.063744116
-0.27071615
-0.067403843
-0.28318696
-0.071209297
-0.29623191
-0.07516107
-0.3098801
-0.079260249
-0.32416121
-0.083506381
-0.33910799
-0.087897731
-0.35475475
-0.092432222
-0.37113715
-0.097106505
-0.38829386
-0.10191513
-0.40626565
-0.10685211
-0.42509552
-0.11190946
-0.44482872
-0.11707794
-0.46551322
-0.1223456
-0.48720062
-0.12769987
-0.50994343
-0.13312508
-0.53379896
-0.13860303
-0.55882707
-0.1441143
-0.5850898
-0.14963558
-0.61265463
-0.15514095
-0.64159088
-0.16060123
-0.67197215
-0.16598354
-0.70387697
-0.1712513
-0.73738618
-0.17636239
-0.77258708
-0.18127135
-0.80956931
-0.18592574
-0.84842911
-0.19026813
-0.88926598
-0.19423347
-0.93218581
-0.19775017
-0.9772994
-0.20073731
-1.0247235
-0.20310492
-1.0745802
-0.20475173
-1.1269964
-0.20556939
-1.1821029
-0.20543171
-1.2400362
-0.20419913
-1.3009429
-0.20172368
-1.3649689
-0.19783212
-1.4322772
-0.19234256
-1.5030197
-0.18504361
-1.5773718
-0.17571068
-1.6555009
-0.16409455
-1.7376014
-0.14990977
-1.8238891
-0.1328638
-1.9146184
-0.11270391
-2.0099472
-0.0886833
-2.1100798
-2.2159547
-0.00051672537
-0.049303394
-0.0012682014
-0.062014943
-0.0019997374
-0.06047594
-0.0028490139
-0.065991886
-0.0036747624
-0.067583986
-0.0045863615
-0.071679506
-0.0054878013
-0.074550454
-0.0064773801
-0.078342472
-0.0074785067
-0.081891409
-0.0085523487
-0.085805523
-0.0096619311
-0.089818744
-0.01083295
-0.094045534
-0.012056585
-0.098460238
-0.013340605
-0.10307857
-0.014686471
-0.1079095
-0.016098034
-0.11296133
-0.017578551
-0.11824467
-0.019131395
-0.12376972
-0.020760019
-0.12954665
-0.022468758
-0.13558696
-0.024260771
-0.14190248
-0.026141119
-0.14850467
-0.028113717
-0.15540705
-0.03018257
-0.16262278
-0.032352861
-0.17016559
-0.034628581
-0.17805084
-0.037014817
-0.18629353
-0.039515972
-0.19491029
-0.042137566
-0.20391787
-0.044883035
-0.21333551
-0.047757593
-0.22318188
-0.050765695
-0.23347706
-0.053911126
-0.24424373
-0.057197862
-0.25550424
-0.060629404
-0.26728279
-0.064208294
-0.27960611
-0.067936826
-0.29250127
-0.071816987
-0.30599768
-0.075849183
-0.32012657
-0.080033506
-0.33492105
-0.084369384
-0.35041605
-0.088854158
-0.36664934
-0.093485029
-0.38365971
-0.098257621
-0.40148952
-0.10316599
-0.42018334
-0.1082036
-0.43978699
-0.11336074
-0.46035164
-0.11862845
-0.48192813
-0.12399388
-0.50457283
-0.12944338
-0.52834388
-0.13496127
-0.55330316
-0.1405289
-0.57951565
-0.14612603
-0.60705047
-0.15172979
-0.63597953
-0.15731311
-0.66638065
-0.16284763
-0.69833361
-0.1682999
-0.73192439
-0.17363309
-0.76724364
-0.17880605
-0.80438532
-0.18377235
-0.84345094
-0.18848031
-0.88454525
-0.19287208
-0.92778033
-0.19688344
-0.9732733
-0.20044208
-1.021149
-0.20346752
-1.0715378
-0.20587177
-1.124574
-0.20754936
-1.180406
-0.20839431
-1.2391707
-0.20827825
-1.3010371
-0.20706904
-1.3661549
-0.20461392
-1.4347076
-0.20073693
-1.5068705
-0.19526082
-1.5828202
-0.1879736
-1.662759
-0.17865398
-1.7468908
-0.16704755
-1.8354645
-0.1528912
-1.9287427
-0.13589796
-2.0269102
-0.11556883
-2.1303862
-2.2394993
-0.00046281334
-0.048840409
-0.0011676833
-0.061309857
-0.0018231637
-0.059820259
-0.0026124197
-0.065202393
-0.0033617476
-0.066834422
-0.0042162026
-0.070824787
-0.005050839
-0.073715541
-0.0059745844
-0.07741843
-0.0069047142
-0.080960965
-0.0079055039
-0.084804399
-0.0089408125
-0.08878308
-0.010035188
-0.092950782
-0.011181901
-0.097313121
-0.012387503
-0.10187254
-0.013654157
-0.10664239
-0.014984982
-0.11163002
-0.016383682
-0.11684545
-0.017854013
-0.12229884
-0.019399654
-0.12800042
-0.021024637
-0.13396134
-0.022733684
-0.14019275
-0.024530167
-0.14670746
-0.026419633
-0.15351682
-0.028406715
-0.16063487
-0.03049599
-0.16807543
-0.032692806
-0.17585308
-0.035002453
-0.18398287
-0.03742996
-0.1924817
-0.039980358
-0.2013663
-0.042658963
-0.21065565
-0.045470774
-0.22036872
-0.048420391
-0.23052599
-0.051512303
-0.24115026
-0.054750999
-0.25226387
-0.058139764
-0.26389222
-0.061681805
-0.27606213
-0.065379734
-0.28880125
-0.069235547
-0.30213961
-0.073250073
-0.31610961
-0.077423761
-0.33074474
-0.081755601
-0.34608138
-0.086244434
-0.36215745
-0.090886967
-0.37901389
-0.095679488
-0.39669344
-0.10061749
-0.4152415
-0.10569393
-0.43470641
-0.11090151
-0.45513959
-0.11623103
-0.47659378
-0.12167167
-0.49912696
-0.12721181
-0.5227981
-0.13283687
-0.54767199
-0.13853132
-0.5738146
-0.14427704
-0.60129761
-0.15005362
-0.63019524
-0.15583864
-0.6605873
-0.16160624
-0.69255701
-0.16732714
-0.72619377
-0.17296993
-0.76159037
-0.17849788
-0.79884608
-0.18387095
-0.83806571
-0.18904329
-0.87935981
-0.19396432
-0.92284519
-0.19857705
-0.96864539
-0.20281828
-1.0168914
-0.20661711
-1.0677214
-0.20989289
-1.1212794
-0.21256028
-1.1777186
-0.21451341
-1.2371962
-0.21565181
-1.2998759
-0.21584243
-1.3659401
-0.21495774
-1.4355665
-0.21284429
-1.5089565
-0.20933521
-1.5863002
-0.20424691
-1.6678167
-0.1973758
-1.7537301
-0.18849539
-1.8443121
-0.17737548
-1.9398287
-0.1637294
-2.0405251
-0.14719811
-2.1468924
-2.2589489
-0.00041309313
-0.048427155
-0.0010768721
-0.060645874
-0.001670199
-0.059226716
-0.0024041039
-0.064468261
-0.0030763359
-0.066161967
-0.0038796651
-0.070021204
-0.004646751
-0.072948187
-0.0055103083
-0.076554587
-0.0063763398
-0.080094629
-0.0073159617
-0.083864454
-0.0082914602
-0.087807236
-0.0093236796
-0.091918196
-0.010408231
-0.096228178
-0.011550087
-0.10073027
-0.012751929
-0.1054401
-0.014017647
-0.11036383
-0.015350733
-0.11551185
-0.016755075
-0.12089395
-0.018235186
-0.12651973
-0.019795081
-0.13240083
-0.021439885
-0.13854729
-0.023174451
-0.14497219
-0.025003966
-0.15168654
-0.026933595
-0.15870443
-0.02896902
-0.16603914
-0.031116133
-0.17370503
-0.033379761
-0.18171824
-0.035766311
-0.19009407
-0.038281197
-0.19885025
-0.040929919
-0.20800568
-0.043718192
-0.21757911
-0.046650721
-0.22759202
-0.049733027
-0.2380664
-0.052968526
-0.2490267
-0.056361838
-0.2604971
-0.059916398
-0.27250563
-0.06363449
-0.28508106
-0.067518171
-0.29825367
-0.071569039
-0.3120563
-0.075787195
-0.32652395
-0.080172544
-0.34169319
-0.084723079
-0.35760384
-0.089437046
-0.3742966
-0.094311157
-0.39181575
-0.099340295
-0.41020849
-0.10451931
-0.42952321
-0.10984239
-0.44981199
-0.11530059
-0.47113068
-0.12088591
-0.49353635
-0.12658687
-0.51709141
-0.13239279
-0.54185988
-0.13828963
-0.56791106
-0.1442623
-0.59531768
-0.15029368
-0.624156
-0.1563644
-0.65450808
-0.16245268
-0.68645954
-0.16853478
-0.72010173
-0.17458264
-0.75553179
-0.18056577
-0.79285138
-0.18644911
-0.83216987
-0.19219447
-0.87360097
-0.1977579
-0.91726722
-0.20309066
-0.96329696
-0.20813777
-1.0118275
-0.21283769
-1.0630034
-0.21712123
-1.1169764
-0.22091102
-1.1739079
-0.22412284
-1.2339621
-0.22665471
-1.2973203
-0.22840604
-1.3641634
-0.22925296
-1.4346925
-0.22906461
-1.509116
-0.22769379
-1.5876405
-0.22497564
-1.6705027
-0.22073001
-1.7579424
-0.21476118
-1.8502464
-0.20685225
-1.9477018
-0.19675028
-2.0505943
-0.1841759
-2.1594394
-2.2740836
-0.00037050919
-0.04805649
-0.0010034681
-0.06001272
-0.00154212
-0.058687873
-0.0022300981
-0.063780066
-0.0028451864
-0.065546645
-0.0035976602
-0.069268486
-0.0043118193
-0.072233768
-0.0051143015
-0.075751828
-0.0059401837
-0.079268453
-0.0068329396
-0.082971385
-0.0077614459
-0.086878396
-0.0087428776
-0.090936409
-0.0097762486
-0.095194427
-0.010865884
-0.099640232
-0.012015773
-0.10428978
-0.013229432
-0.10914971
-0.014511727
-0.11422906
-0.015866769
-0.11953838
-0.017299375
-0.12508656
-0.01881497
-0.13088463
-0.020418191
-0.13694342
-0.022115295
-0.14327439
-0.023911553
-0.14988954
-0.025812736
-0.15680245
-0.027825288
-0.16402572
-0.029954955
-0.17157444
-0.032208745
-0.17946346
-0.034592348
-0.1877094
-0.037111638
-0.19632982
-0.039773367
-0.20534271
-0.042582686
-0.21476845
-0.045545327
-0.22462794
-0.048666098
-0.23494408
-0.051950243
-0.24574088
-0.055400919
-0.25704462
-0.059021879
-0.26888272
-0.062816299
-0.28128454
-0.066785896
-0.2942818
-0.070931799
-0.30790795
-0.075254634
-0.32219846
-0.079754312
-0.33719064
-0.084429509
-0.35292555
-0.089278578
-0.36944419
-0.094298258
-0.38679245
-0.099485519
-0.40501731
-0.1048357
-0.42416879
-0.11034324
-0.44429986
-0.11600251
-0.46546644
-0.12180545
-0.48772803
-0.12774455
-0.51114649
-0.13380969
-0.53578842
-0.13999045
-0.56172345
-0.1462751
-0.58902562
-0.15264946
-0.61777362
-0.15909836
-0.64805049
-0.16560396
-0.67994454
-0.17214696
-0.71354855
-0.17870491
-0.74896282
-0.18525248
-0.78629191
-0.19176163
-0.82564786
-0.19819971
-0.86714899
-0.20453092
-0.91092101
-0.2107141
-0.95709756
-0.21670352
-1.0058205
-0.22244751
-1.0572405
-0.22788716
-1.1115165
-0.23295696
-1.1688163
-0.23758406
-1.2293117
-0.24168312
-1.2931963
-0.24516212
-1.3606578
-0.24792225
-1.4319039
-0.24984568
-1.5071623
-0.25080245
-1.5866514
-0.25065583
-1.6706155
-0.24924228
-1.7593208
-0.24639128
-1.8530609
-0.24192092
-1.9521344
-0.23560039
-2.0568806
-0.2271933
-2.1678164
-2.2846808
-0.00032690967
-0.047729431
-0.00093388819
-0.059405554
-0.0014237447
-0.058197829
-0.0020666061
-0.063136997
-0.0026399102
-0.064973124
-0.0033667866
-0.068541373
-0.0040485704
-0.071551735
-0.0048357632
-0.07496437
-0.0056183917
-0.078485539
-0.0064634083
-0.082126066
-0.0073482435
-0.085993236
-0.0082855153
-0.089998792
-0.0092771649
-0.094202408
-0.010326774
-0.098590229
-0.011438712
-0.10317742
-0.012617555
-0.10797042
-0.013867252
-0.11297888
-0.015193795
-0.11821132
-0.01660203
-0.12367777
-0.018097668
-0.1293884
-0.019686599
-0.13535385
-0.021374893
-0.14158541
-0.023168946
-0.14809475
-0.025076105
-0.1548945
-0.027101965
-0.16199901
-0.02925415
-0.16942134
-0.031538949
-0.17717767
-0.033963348
-0.18528393
-0.036534014
-0.193758
-0.03925716
-0.20261833
-0.042138659
-0.21188562
-0.045184383
-0.22158078
-0.04839957
-0.23172734
-0.051788359
-0.24235041
-0.05535505
-0.25347612
-0.059103178
-0.26513263
-0.063034926
-0.27735067
-0.067152526
-0.29016191
-0.071457262
-0.30360074
-0.075949629
-0.31770341
-0.080629376
-0.332508
-0.08549639
-0.3480554
-0.090548476
-0.36438871
-0.095783954
-0.3815533
-0.10120022
-0.39959707
-0.10679385
-0.41857085
-0.11256115
-0.4385279
-0.11849772
-0.45952482
-0.12459829
-0.48162198
-0.130857
-0.50488184
-0.13726742
-0.52937157
-0.14382137
-0.55516251
-0.15051043
-0.58232899
-0.15732446
-0.61095138
-0.16425234
-0.6411137
-0.17128126
-0.67290596
-0.17839599
-0.70642337
-0.18557981
-0.74176768
-0.19281354
-0.77904592
-0.20007505
-0.81837308
-0.20733923
-0.85987045
-0.21457748
-0.90366721
-0.22175705
-0.94990117
-0.22884144
-0.99871797
-0.23578818
-1.0502741
-0.24255036
-1.1047331
-0.2490736
-1.1622703
-0.25529553
-1.2230653
-0.26114888
-1.2873168
-0.26655963
-1.355219
-0.27143264
-1.427001
-0.2756797
-1.5028832
-0.27918568
-1.5831114
-0.28183258
-1.6679328
-0.28348533
-1.7576309
-0.28399992
-1.8525077
-0.28321489
-1.9528796
-0.28092981
-2.0591297
-0.2769567
-2.1717565
-2.2904614
-0.00028467632
-0.047444611
-0.00087223126
-0.058817821
-0.0013224969
-0.057747382
-0.001945236
-0.062514057
-0.0024966644
-0.064421485
-0.0032005267
-0.067837284
-0.0038471926
-0.070904828
-0.0046099254
-0.074201378
-0.005361287
-0.077733902
-0.0061739815
-0.081313077
-0.0070317476
-0.085135155
-0.0079423121
-0.089087892
-0.0089101298
-0.093234229
-0.0099387187
-0.097561256
-0.011033122
-0.1020826
-0.012198176
-0.10680492
-0.013439557
-0.11173703
-0.014762707
-0.11688767
-0.016173676
-0.12226625
-0.017679303
-0.12788218
-0.019285709
-0.13374681
-0.021000531
-0.13986991
-0.022830268
-0.14626428
-0.024782459
-0.15294152
-0.02686484
-0.15991578
-0.029084362
-0.1672009
-0.031448725
-0.17481232
-0.033964961
-0.18276663
-0.036639662
-0.19108215
-0.039479774
-0.19977698
-0.042491479
-0.20887258
-0.045679925
-0.21839089
-0.049050056
-0.22835565
-0.052606704
-0.23879207
-0.056353539
-0.24972746
-0.060293279
-0.26119091
-0.06442874
-0.27321307
-0.068761692
-0.28582664
-0.073293058
-0.29906686
-0.078023783
-0.31296998
-0.082953728
-0.32757512
-0.088082423
-0.34292353
-0.093409456
-0.35905823
-0.098934041
-0.37602498
-0.10465438
-0.39387269
-0.11056895
-0.4126519
-0.1166756
-0.43241651
-0.12297207
-0.45322319
-0.12945581
-0.47513265
-0.13612326
-0.49820832
-0.1429711
-0.52251714
-0.14999505
-0.54813142
-0.15718985
-0.57512643
-0.16455001
-0.6035828
-0.17206834
-0.63358623
-0.17973691
-0.66522747
-0.18754559
-0.69860393
-0.19548391
-0.73381768
-0.20353823
-0.77097894
-0.21169308
-0.81020451
-0.21993091
-0.85161775
-0.22823088
-0.89535112
-0.23656909
-0.94154551
-0.24491735
-0.9903508
-0.25324483
-1.0419262
-0.26151446
-1.0964414
-0.26968542
-1.1540756
-0.27770726
-1.2150179
-0.28552744
-1.2794692
-0.29308046
-1.3476366
-0.30030092
-1.419749
-0.30710883
-1.4960415
-0.31341578
-1.5767685
-0.31911789
-1.6621928
-0.32410613
-1.7526034
-0.3282625
-1.8483104
-0.33144919
-1.9496507
-0.33350657
-2.0570341
-0.33426542
-2.1709615
-2.2911088
-0.00024627344
-0.047198199
-0.00082262191
-0.058241301
-0.0012427057
-0.057327124
-0.0018904143
-0.061866155
-0.0024228508
-0.063888845
-0.003101627
-0.067158288
-0.0037239472
-0.070282273
-0.0044466169
-0.073478457
-0.005186197
-0.076994053
-0.0059827547
-0.080516233
-0.006830209
-0.084287392
-0.0077321833
-0.08818559
-0.0086955332
-0.092270526
-0.0097242353
-0.096532176
-0.010824033
-0.1009824
-0.012000704
-0.10562782
-0.013260519
-0.11047674
-0.014610222
-0.11553746
-0.016056688
-0.12081925
-0.017606742
-0.12633155
-0.019269141
-0.13208379
-0.021050493
-0.13808788
-0.022959834
-0.14435421
-0.025004625
-0.15089595
-0.027192877
-0.15772668
-0.029532864
-0.16486
-0.032032156
-0.17231204
-0.034697878
-0.18009985
-0.037537562
-0.18824132
-0.04055729
-0.19675601
-0.043762718
-0.2056658
-0.047159524
-0.21499262
-0.050752115
-0.22476148
-0.054544621
-0.23499786
-0.058540214
-0.24573001
-0.062741554
-0.25698757
-0.067150696
-0.26880176
-0.071769137
-0.28120585
-0.076598406
-0.29423505
-0.081638957
-0.30792667
-0.086891485
-0.32231961
-0.092356547
-0.33745523
-0.098034422
-0.35337685
-0.10392493
-0.37013067
-0.11002876
-0.38776474
-0.11634627
-0.40632992
-0.1228773
-0.42588062
-0.1296222
-0.44647303
-0.13658109
-0.46816805
-0.14375411
-0.49102909
-0.15114049
-0.51512402
-0.15874041
-0.54052416
-0.16655243
-0.56730645
-0.17457504
-0.59555152
-0.18280628
-0.62534558
-0.19124292
-0.65678062
-0.19988115
-0.6899546
-0.2087154
-0.72497138
-0.21773923
-0.76194203
-0.22694435
-0.8009852
-0.23631982
-0.84222686
-0.24585351
-0.8858007
-0.25553016
-0.9318507
-0.26533207
-0.98052919
-0.27523761
-1.0319993
-0.28522172
-1.0864342
-0.29525455
-1.1440178
-0.30530237
-1.2049432
-0.31532288
-1.2694198
-0.32527094
-1.3376575
-0.33509661
-1.40989
-0.34473286
-1.4863696
-0.35411572
-1.5673476
-0.36316507
-1.6531034
-0.37179543
-1.7439313
-0.37990719
-1.840155
-0.38739949
-1.9421136
-0.39413903
-2.0502537
-0.39999152
-2.1650694
-2.2862688
-0.0002137086
-0.046984356
-0.00079176058
-0.057663084
-0.0011899557
-0.056928761
-0.0018483982
-0.061207526
-0.0023524967
-0.063384549
-0.0030249961
-0.066485576
-0.003645929
-0.069661112
-0.0043632483
-0.072760894
-0.0051045519
-0.076252487
-0.0059007811
-0.079719725
-0.0067553857
-0.083432487
-0.0076690349
-0.087271619
-0.008650032
-0.091289183
-0.0097032201
-0.095478618
-0.010835291
-0.099849927
-0.012053019
-0.10440966
-0.013363665
-0.10916564
-0.014774681
-0.11412595
-0.016294642
-0.11929875
-0.017931639
-0.12469398
-0.019694123
-0.13032068
-0.021591206
-0.13619013
-0.023631229
-0.14231346
-0.025823106
-0.14870328
-0.028175755
-0.15537318
-0.030696764
-0.16233807
-0.033394142
-0.16961367
-0.036275323
-0.17721759
-0.039347164
-0.18516831
-0.042614953
-0.19348696
-0.046085114
-0.20219428
-0.049761432
-0.21131483
-0.053648559
-0.22087275
-0.057749088
-0.2308956
-0.062065608
-0.24141162
-0.066600796
-0.25245035
-0.071356294
-0.26404406
-0.076333349
-0.27622641
-0.081533423
-0.28903239
-0.086958062
-0.30249923
-0.092608539
-0.31666609
-0.098486436
-0.33157404
-0.10459324
-0.34726648
-0.11093138
-0.36378866
-0.11750307
-0.38118884
-0.12431058
-0.39951785
-0.13135746
-0.41882878
-0.13864614
-0.43917897
-0.14618055
-0.46062778
-0.15396399
-0.48323929
-0.16200026
-0.50708084
-0.17029223
-0.53222467
-0.17884372
-0.55874677
-0.18765806
-0.58672828
-0.19673777
-0.61625618
-0.20608531
-0.64742254
-0.21570277
-0.68032568
-0.22559088
-0.71507082
-0.23574968
-0.75176968
-0.24617781
-0.79054234
-0.25687359
-0.83151508
-0.26783215
-0.87482474
-0.2790478
-0.92061614
-0.2905126
-0.96904385
-0.30221601
-1.0202736
-0.31414477
-1.0744813
-0.32628235
-1.1318541
-0.33860608
-1.1925912
-0.35109345
-1.2569019
-0.36371284
-1.3250053
-0.37642494
-1.3971427
-0.38919699
-1.4735598
-0.401973
-1.5545313
-0.41469683
-1.640337
-0.4273039
-1.7312798
-0.43973363
-1.8276787
-0.45190041
-1.9298991
-0.46371816
-2.0383919
-0.47508018
-2.1536632
-2.2755316
-0.00019281846
-0.046791408
-0.00079033309
-0.05706541
-0.0011848602
-0.05653407
-0.0018371122
-0.060555092
-0.0023347448
-0.062886724
-0.0030105888
-0.065809524
-0.0036455895
-0.069025889
-0.0043669728
-0.072039273
-0.0051295996
-0.075489603
-0.0059462631
-0.078902787
-0.0068293747
-0.082549079
-0.0077785394
-0.086322139
-0.0088032849
-0.090264096
-0.0099097496
-0.094371787
-0.011105741
-0.09865354
-0.012399274
-0.1031157
-0.013798946
-0.1077655
-0.015313769
-0.11261063
-0.01695257
-0.11765941
-0.01872551
-0.12292046
-0.020641616
-0.12840395
-0.022710782
-0.13412029
-0.024942061
-0.14008145
-0.027344775
-0.14629978
-0.029927647
-0.15278946
-0.032698912
-0.15956588
-0.035665705
-0.16664587
-0.03883522
-0.17404699
-0.0422129
-0.18178945
-0.045804654
-0.18989393
-0.049614123
-0.19838342
-0.053645219
-0.20728223
-0.057900968
-0.21661538
-0.062383626
-0.22641118
-0.06709532
-0.23669802
-0.072037943
-0.24750566
-0.077212853
-0.25886692
-0.082622204
-0.27081464
-0.088267662
-0.28338431
-0.094151716
-0.29661232
-0.10027706
-0.31053766
-0.10664691
-0.32520084
-0.11326529
-0.34064446
-0.12013636
-0.35691363
-0.1272649
-0.374056
-0.1346568
-0.39212128
-0.14231784
-0.41116267
-0.15025465
-0.43123665
-0.15847392
-0.45240251
-0.16698315
-0.47472353
-0.17578986
-0.49826702
-0.1849025
-0.52310428
-0.1943288
-0.54931205
-0.2040771
-0.57697081
-0.21415518
-0.60616811
-0.22457187
-0.63699497
-0.23533439
-0.66955131
-0.24645049
-0.70394182
-0.25792739
-0.74027874
-0.2697718
-0.77868265
-0.28198913
-0.8192811
-0.29458437
-0.86221139
-0.30756114
-0.90761966
-0.32092169
-0.95566186
-0.33466703
-1.006505
-0.34879588
-1.0603271
-0.36330439
-1.1173182
-0.37818547
-1.1776805
-0.39343244
-1.2416229
-0.40902557
-1.3093776
-0.42495273
-1.3811784
-0.44118695
-1.4572856
-0.45770405
-1.5379715
-0.47447212
-1.6235237
-0.49144716
-1.7142572
-0.50858815
-1.8104879
-0.52584506
-1.9125913
-0.54317308
-2.0210162
-0.56049284
-2.1362941
-2.2584183
-0.00017332638
-0.046617956
-0.00079872541
-0.056439857
-0.0011974135
-0.056135223
-0.0018618682
-0.059890462
-0.0023759711
-0.062372433
-0.0030660677
-0.065119225
-0.0037289526
-0.068362786
-0.0044731776
-0.071294815
-0.0052744772
-0.074688052
-0.0061334635
-0.078043532
-0.0070688375
-0.081613414
-0.0080808073
-0.085309857
-0.0091797487
-0.089164816
-0.010373502
-0.09317767
-0.01167127
-0.09735538
-0.013082567
-0.10170398
-0.014617353
-0.10623026
-0.01628597
-0.11094152
-0.018098943
-0.1158459
-0.02006648
-0.12095234
-0.02219928
-0.12627052
-0.024507238
-0.13181165
-0.02699983
-0.13758812
-0.029686492
-0.14361232
-0.032575194
-0.14989989
-0.035673342
-0.15646679
-0.038988164
-0.16333003
-0.042524443
-0.17050961
-0.046287226
-0.17802547
-0.050280173
-0.18589968
-0.05450637
-0.19415582
-0.058968492
-0.20281859
-0.063667514
-0.21191471
-0.068606295
-0.22147061
-0.073785916
-0.23151646
-0.079208017
-0.24208146
-0.084875227
-0.25319742
-0.090789614
-0.26489778
-0.096955206
-0.27721603
-0.10337567
-0.29018895
-0.11005558
-0.30385458
-0.11700046
-0.31825253
-0.124217
-0.33342419
-0.13171215
-0.34941445
-0.13949398
-0.36626977
-0.14757152
-0.38403897
-0.15595412
-0.40277486
-0.16465201
-0.4225331
-0.17367641
-0.44337195
-0.18303858
-0.46535465
-0.19275096
-0.48854734
-0.20282544
-0.51302183
-0.213276
-0.53885281
-0.22411551
-0.56612183
-0.23535837
-0.59491492
-0.24701807
-0.62532402
-0.25910957
-0.65744755
-0.27164704
-0.69139098
-0.28464487
-0.72726634
-0.29811826
-0.76519337
-0.31208086
-0.80530119
-0.32654699
-0.84772639
-0.34153052
-0.89261557
-0.35704454
-0.94012545
-0.37310112
-0.99042404
-0.38971212
-1.0436896
-0.40688796
-1.1001135
-0.42463795
-1.1598993
-0.44296537
-1.2232617
-0.46187525
-1.2904313
-0.48136774
-1.3616465
-0.50144284
-1.4371681
-0.52209409
-1.5172748
-0.54330704
-1.6022625
-0.56507475
-1.6924386
-0.58737308
-1.7881361
-0.6101917
-1.8897182
-0.63350889
-1.9976471
-0.65729186
-2.1124557
-2.2343853
-0.00015947015
-0.046458363
-0.0008272971
-0.055771881
-0.0012360373
-0.055726328
-0.001928723
-0.059197605
-0.0024740398
-0.061826933
-0.0031918667
-0.064401201
-0.0039047981
-0.067649641
-0.004692272
-0.070507113
-0.0055555407
-0.073824536
-0.0064842365
-0.077114571
-0.007501425
-0.080595938
-0.0086094515
-0.084201521
-0.009819853
-0.087954079
-0.011142607
-0.091854554
-0.012588508
-0.095909086
-0.014168883
-0.10012318
-0.015895148
-0.10450353
-0.017778855
-0.10905731
-0.019831468
-0.11379275
-0.022064152
-0.11871907
-0.024487368
-0.12384667
-0.027111362
-0.12918696
-0.02994557
-0.13475317
-0.032997668
-0.14055941
-0.036275211
-0.14662147
-0.039784073
-0.15295698
-0.043528907
-0.15958417
-0.047513736
-0.16652366
-0.051741311
-0.17379668
-0.056213551
-0.18142613
-0.060931782
-0.18943616
-0.065897675
-0.19785115
-0.071112301
-0.2066984
-0.076577091
-0.216004
-0.082294262
-0.22579731
-0.088266279
-0.2361073
-0.094496465
-0.24696491
-0.10098982
-0.2584019
-0.10775069
-0.27045243
-0.11478614
-0.28315054
-0.12210308
-0.29653441
-0.12971093
-0.31064118
-0.13761818
-0.32551314
-0.14583573
-0.34119275
-0.15437566
-0.35772534
-0.16324973
-0.37516001
-0.17247169
-0.39354756
-0.1820561
-0.41294288
-0.19201777
-0.43340395
-0.2023731
-0.45499242
-0.21313847
-0.47777444
-0.22433226
-0.50181983
-0.235972
-0.52720411
-0.24807693
-0.55400712
-0.26066728
-0.58231391
-0.27376328
-0.61221637
-0.28738582
-0.6438123
-0.30155742
-0.67720551
-0.31630024
-0.71250839
-0.33163674
-0.74984035
-0.34759062
-0.78932929
-0.36418599
-0.83111134
-0.38144689
-0.87533321
-0.39939726
-0.92215167
-0.41806276
-0.97173302
-0.43746787
-1.0242567
-0.45763705
-1.0799141
-0.47859432
-1.1389092
-0.50036137
-1.2014591
-0.52296244
-1.2677916
-0.54641611
-1.3381511
-0.57073981
-1.4127995
-0.59595188
-1.4920145
-0.62206976
-1.5760932
-0.64910016
-1.6653536
-0.67705493
-1.7601238
-0.70594456
-1.8607703
-0.73579211
-1.9677424
-0.76658861
-2.0815961
-2.2028102
-0.00015180872
-0.046306436
-0.00088134964
-0.055042196
-0.0013025919
-0.055304935
-0.0020401842
-0.058459846
-0.0026343246
-0.061232614
-0.0033983078
-0.063637025
-0.0041840182
-0.066863721
-0.0050398403
-0.069651066
-0.0059908263
-0.072873305
-0.0070207837
-0.076084352
-0.0081552101
-0.079461225
-0.0094000092
-0.082956415
-0.010768281
-0.086585472
-0.012272113
-0.09035036
-0.01392419
-0.094256615
-0.015737225
-0.098309723
-0.017723944
-0.10251635
-0.019896688
-0.10688407
-0.022267426
-0.11142146
-0.024847316
-0.11613859
-0.027646729
-0.12104661
-0.030674542
-0.12615845
-0.033938417
-0.13148853
-0.037445034
-0.13705197
-0.041198834
-0.14286677
-0.045203779
-0.14895106
-0.049461603
-0.15532529
-0.053973962
-0.16201016
-0.058741764
-0.16902764
-0.063765231
-0.17640132
-0.069045194
-0.18415474
-0.074582144
-0.19231262
-0.080377951
-0.20090088
-0.086434596
-0.2099455
-0.092755786
-0.21947411
-0.099345375
-0.22951552
-0.10620957
-0.24009835
-0.11335458