/*--------------------------------*- C++ -*----------------------------------*\
| =========                 |                                                 |
| \\      /  F ield         | OpenFOAM: The Open Source CFD Toolbox           |
|  \\    /   O peration     | Version:  2512                                  |
|   \\  /    A nd           | Website:  www.openfoam.com                      |
|    \\/     M anipulation  |                                                 |
\*---------------------------------------------------------------------------*/
FoamFile
{
    version     2.0;
    format      ascii;
    arch        "LSB;label=32;scalar=64";
    class       volScalarField;
    location    "0.146";
    object      rho;
}
// * * * * * * * * * * * * * * * * * * * * * * * * * * * * * * * * * * * * * //

dimensions      [1 -3 0 0 0 0 0];

internalField   nonuniform List<scalar> 
16000
(
1.0642418
1.0948864
1.078353
1.0886214
1.0826542
1.0870201
1.0851198
1.0872748
1.0870237
1.0883161
1.088802
1.0898081
1.0906139
1.0915822
1.0925421
1.0935661
1.0946259
1.0957312
1.0968787
1.0980691
1.099302
1.1005771
1.1018939
1.1032517
1.1046496
1.1060865
1.1075611
1.1090718
1.1106167
1.1121938
1.1138006
1.1154345
1.1170923
1.1187709
1.1204667
1.122176
1.1238948
1.1256189
1.127344
1.1290656
1.1307794
1.1324807
1.1341653
1.1358287
1.1374668
1.1390754
1.140651
1.14219
1.1436891
1.1451456
1.1465569
1.1479207
1.1492353
1.1504992
1.1517111
1.1528703
1.1539761
1.1550284
1.156027
1.156972
1.1578637
1.1587023
1.1594883
1.1602222
1.1609043
1.1615354
1.162116
1.162647
1.1631291
1.1635624
1.1639465
1.164281
1.1645671
1.1648066
1.1650006
1.1651569
1.1652721
1.165199
1.1657117
1.1645881
1.0609996
1.0922014
1.0751202
1.0859311
1.0796422
1.0843822
1.0822953
1.0846866
1.0843977
1.0858082
1.0863482
1.0874295
1.0883167
1.0893604
1.0904062
1.0915146
1.0926639
1.0938606
1.0951028
1.0963904
1.097723
1.0990999
1.1005204
1.1019835
1.1034878
1.105032
1.1066143
1.1082326
1.1098845
1.1115675
1.1132787
1.1150146
1.1167717
1.1185463
1.1203342
1.122131
1.1239323
1.1257334
1.1275295
1.1293158
1.1310875
1.1328399
1.1345686
1.136269
1.1379372
1.1395691
1.1411614
1.1427109
1.1442148
1.1456707
1.1470765
1.1484307
1.149732
1.1509794
1.1521725
1.1533108
1.1543943
1.1554234
1.1563983
1.1573196
1.1581878
1.1590036
1.1597676
1.1604805
1.1611429
1.1617555
1.162319
1.1628342
1.1633017
1.1637217
1.1640936
1.1644169
1.1646919
1.1649204
1.1651053
1.1652519
1.1653325
1.1653483
1.1656731
1.1646965
1.058198
1.0897481
1.0723523
1.0834326
1.0770517
1.0819428
1.0798781
1.0823493
1.0821335
1.0836087
1.0842367
1.0853899
1.0863686
1.0874959
1.0886353
1.0898371
1.0910843
1.0923812
1.0937261
1.0951188
1.0965583
1.0980439
1.0995743
1.1011482
1.102764
1.1044198
1.1061133
1.1078419
1.1096028
1.1113927
1.1132081
1.115045
1.1168993
1.1187663
1.1206415
1.1225197
1.1243961
1.1262653
1.1281223
1.1299619
1.1317791
1.1335691
1.1353273
1.1370495
1.1387318
1.1403706
1.1419629
1.143506
1.1449977
1.1464362
1.1478201
1.1491484
1.1504207
1.1516366
1.1527961
1.1538997
1.1549477
1.155941
1.1568805
1.1577669
1.1586012
1.1593844
1.1601173
1.1608008
1.1614355
1.1620224
1.162562
1.1630552
1.1635024
1.163904
1.1642592
1.1645673
1.1648281
1.1650434
1.1652175
1.1653496
1.1654129
1.1654737
1.1656226
1.164872
1.0557056
1.0875636
1.069806
1.0812223
1.0746959
1.0798436
1.0777622
1.0803678
1.0802129
1.0817788
1.0825048
1.083744
1.0848291
1.0860535
1.0873
1.0886083
1.0899658
1.0913747
1.0928339
1.0943426
1.0958999
1.0975044
1.0991548
1.1008493
1.1025857
1.1043616
1.1061742
1.1080202
1.1098961
1.1117977
1.1137209
1.1156608
1.1176125
1.1195706
1.1215298
1.1234844
1.1254288
1.1273574
1.1292645
1.131145
1.1329935
1.1348055
1.1365764
1.1383023
1.1399797
1.1416056
1.1431777
1.1446938
1.1461525
1.1475529
1.1488944
1.1501769
1.1514005
1.1525658
1.1536735
1.1547246
1.1557202
1.1566617
1.1575502
1.1583872
1.159174
1.1599116
1.1606012
1.1612438
1.1618402
1.1623913
1.1628978
1.1633602
1.1637793
1.164155
1.1644866
1.1647729
1.1650135
1.1652103
1.1653667
1.1654783
1.1655322
1.165591
1.1656514
1.1650232
1.0535971
1.0857784
1.0677016
1.0794263
1.0726803
1.0781211
1.0760549
1.0787832
1.0787192
1.0803765
1.0812209
1.0825533
1.0837561
1.0850868
1.0864489
1.0878724
1.0893484
1.0908781
1.0924604
1.0940943
1.0957784
1.0975112
1.0992906
1.1011143
1.1029795
1.1048829
1.106821
1.1087895
1.110784
1.1127995
1.1148307
1.116872
1.1189174
1.1209609
1.1229963
1.1250172
1.1270177
1.1289915
1.130933
1.1328367
1.1346977
1.1365114
1.1382739
1.1399816
1.1416319
1.1432225
1.1447518
1.1462188
1.1476228
1.148964
1.1502427
1.1514596
1.1526159
1.1537128
1.1547519
1.1557347
1.1566632
1.1575389
1.1583637
1.1591392
1.159867
1.1605486
1.1611852
1.1617778
1.1623275
1.162835
1.1633009
1.163726
1.1641105
1.1644545
1.1647572
1.165017
1.1652332
1.1654075
1.1655419
1.1656316
1.1656733
1.165715
1.1657014
1.1651967
1.0518877
1.0843756
1.0660191
1.0780547
1.0712749
1.0768391
1.0747817
1.0776619
1.0776996
1.0794555
1.080428
1.0818564
1.0831829
1.0846271
1.0861129
1.0876618
1.0892676
1.0909303
1.0926486
1.0944208
1.0962451
1.0981191
1.10004
1.1020045
1.1040089
1.1060489
1.1081199
1.1102165
1.1123331
1.1144637
1.1166018
1.1187407
1.1208737
1.1229937
1.1250938
1.1271672
1.1292074
1.1312082
1.1331638
1.135069
1.1369192
1.1387104
1.1404394
1.1421036
1.1437013
1.1452313
1.146693
1.1480865
1.1494126
1.1506721
1.1518666
1.1529979
1.1540678
1.1550785
1.1560323
1.1569315
1.1577782
1.1585748
1.1593234
1.1600258
1.1606841
1.1612996
1.1618739
1.162408
1.1629029
1.1633593
1.1637779
1.1641591
1.1645031
1.1648099
1.1650784
1.1653069
1.1654945
1.1656421
1.1657501
1.165816
1.1658423
1.1658539
1.1657873
1.1653831
1.0505731
1.0833677
1.0647587
1.0770996
1.0702603
1.0760057
1.0740213
1.0770083
1.0771783
1.0789988
1.080109
1.0816419
1.0831062
1.0846811
1.0863082
1.0880014
1.0897558
1.0915703
1.093443
1.0953714
1.0973526
1.0993835
1.10146
1.1035779
1.1057321
1.1079172
1.1101271
1.1123553
1.1145947
1.116838
1.1190776
1.1213058
1.1235146
1.1256965
1.1278439
1.1299497
1.1320072
1.1340103
1.1359537
1.1378327
1.1396436
1.1413833
1.1430497
1.1446415
1.1461582
1.1475999
1.1489676
1.1502626
1.1514868
1.1526424
1.153732
1.1547582
1.155724
1.1566322
1.1574857
1.1582873
1.1590398
1.1597457
1.1604074
1.1610272
1.1616069
1.1621483
1.1626527
1.1631212
1.1635549
1.1639543
1.1643199
1.164652
1.1649507
1.1652157
1.1654459
1.1656393
1.1657948
1.165912
1.1659905
1.1660314
1.1660394
1.1660136
1.1659012
1.1655953
1.0495881
1.0826908
1.0638499
1.0765479
1.0696502
1.0756169
1.0736473
1.0768133
1.077026
1.0789707
1.0802588
1.0819277
1.083559
1.0852927
1.0870866
1.0889488
1.0908754
1.0928642
1.0949125
1.0970169
1.0991736
1.1013779
1.1036246
1.105908
1.1082216
1.1105582
1.1129104
1.1152698
1.1176282
1.1199767
1.1223065
1.1246089
1.1268752
1.1290971
1.131267
1.1333776
1.1354226
1.1373967
1.1392952
1.1411146
1.1428523
1.144507
1.146078
1.1475655
1.1489708
1.1502955
1.151542
1.1527132
1.1538122
1.1548424
1.1558074
1.1567109
1.1575564
1.1583475
1.1590876
1.1597799
1.1604275
1.1610331
1.1615994
1.1621286
1.1626227
1.1630834
1.1635119
1.1639095
1.1642768
1.1646144
1.1649226
1.1652015
1.165451
1.1656706
1.165859
1.1660142
1.1661348
1.1662187
1.1662652
1.1662802
1.1662659
1.166196
1.1660488
1.1658372
1.0489514
1.082354
1.0632979
1.0764241
1.0693594
1.0754514
1.0736197
1.0768923
1.0774224
1.0794862
1.0809778
1.0828055
1.0846262
1.0865441
1.0885291
1.0905851
1.092708
1.0948945
1.0971405
1.0994414
1.1017918
1.1041854
1.1066154
1.109074
1.1115529
1.1140432
1.1165353
1.1190195
1.1214857
1.1239239
1.126324
1.1286765
1.1309723
1.1332031
1.1353612
1.1374403
1.1394348
1.1413406
1.1431546
1.1448751
1.1465014
1.1480339
1.149474
1.1508239
1.1520865
1.1532654
1.1543644
1.1553879
1.1563402
1.1572258
1.1580492
1.1588147
1.1595266
1.1601888
1.1608052
1.1613791
1.1619138
1.1624121
1.1628767
1.1633098
1.1637133
1.1640887
1.1644373
1.1647601
1.1650577
1.1653303
1.1655781
1.165801
1.1659986
1.1661702
1.1663144
1.1664294
1.166513
1.1665615
1.1665748
1.1665636
1.1665235
1.1664048
1.1662319
1.166113
1.0487069
1.0824027
1.0631492
1.0766377
1.0695075
1.0759823
1.0742977
1.0776852
1.0783988
1.0806063
1.0823316
1.0843483
1.0863863
1.0885183
1.0907231
1.0930009
1.0953467
1.0977558
1.1002226
1.1027403
1.1053016
1.1078981
1.1105208
1.1131595
1.1158037
1.1184424
1.1210639
1.1236568
1.1262094
1.1287106
1.1311496
1.1335165
1.1358024
1.1379994
1.1401011
1.1421024
1.1439997
1.1457908
1.147475
1.1490528
1.150526
1.1518973
1.1531704
1.1543496
1.1554397
1.156446
1.1573738
1.1582287
1.159016
1.1597412
1.1604093
1.1610252
1.1615935
1.1621185
1.1626039
1.1630534
1.1634702
1.1638569
1.1642161
1.1645499
1.16486
1.1651478
1.1654144
1.1656604
1.1658864
1.1660923
1.1662782
1.1664435
1.1665878
1.1667101
1.1668089
1.1668826
1.1669279
1.1669398
1.1669198
1.1668826
1.1668132
1.1666444
1.1664562
1.1664247
1.0489283
1.0829134
1.0634764
1.0771886
1.0702197
1.0768301
1.0755036
1.0789392
1.0800387
1.0824137
1.0844074
1.086649
1.0889359
1.0913152
1.0937712
1.0963009
1.098898
1.1015554
1.1042652
1.1070183
1.1098044
1.1126126
1.1154308
1.1182464
1.1210462
1.1238168
1.1265447
1.1292167
1.1318201
1.134343
1.1367747
1.1391059
1.1413287
1.143437
1.1454265
1.1472946
1.1490404
1.1506648
1.1521699
1.1535592
1.1548373
1.1560093
1.1570814
1.1580598
1.1589512
1.1597622
1.1604994
1.1611693
1.161778
1.1623314
1.1628351
1.163294
1.1637129
1.1640959
1.164447
1.1647694
1.1650661
1.1653398
1.1655927
1.1658265
1.1660428
1.1662428
1.1664271
1.1665963
1.1667505
1.1668897
1.1670134
1.1671212
1.167212
1.1672847
1.167338
1.1673701
1.1673769
1.1673522
1.1673002
1.1672373
1.1671355
1.1669186
1.1667278
1.1667765
1.0496739
1.0839471
1.064365
1.0784555
1.0716881
1.0784658
1.0773597
1.0810184
1.0824307
1.085007
1.0873034
1.0898111
1.0923832
1.0950472
1.0977895
1.100604
1.1034817
1.1064126
1.1093854
1.1123877
1.1154058
1.1184253
1.121431
1.1244071
1.1273379
1.1302075
1.133001
1.1357041
1.1383039
1.1407889
1.1431498
1.1453792
1.1474718
1.1494247
1.151237
1.1529097
1.1544456
1.1558493
1.1571263
1.1582831
1.1593272
1.1602663
1.1611083
1.1618615
1.1625338
1.1631328
1.163666
1.1641404
1.1645625
1.1649383
1.1652732
1.1655724
1.1658403
1.1660808
1.1662976
1.1664936
1.1666715
1.1668336
1.1669817
1.1671173
1.1672416
1.1673554
1.1674592
1.1675532
1.1676372
1.1677111
1.167774
1.1678253
1.1678637
1.1678878
1.1678966
1.167888
1.1678568
1.1677968
1.1677153
1.1676272
1.1674899
1.1672285
1.167048
1.1671733
1.0509309
1.0854881
1.0657974
1.0802364
1.0737791
1.0807128
1.0800259
1.083832
1.085664
1.0884889
1.0911317
1.0939552
1.0968562
1.0998474
1.1029147
1.1060479
1.1092343
1.1124597
1.1157085
1.1189641
1.1222087
1.1254239
1.1285909
1.131691
1.1347059
1.1376186
1.1404132
1.143076
1.1455954
1.1479626
1.1501714
1.1522182
1.1541023
1.1558251
1.1573905
1.158804
1.1600727
1.1612049
1.1622096
1.1630963
1.1638748
1.1645548
1.1651459
1.1656574
1.1660979
1.1664758
1.1667988
1.1670738
1.1673073
1.1675051
1.1676723
1.1678137
1.1679333
1.1680347
1.1681208
1.1681943
1.1682574
1.1683119
1.1683593
1.1684006
1.1684367
1.1684679
1.1684946
1.1685166
1.1685335
1.1685447
1.1685495
1.1685467
1.1685349
1.1685127
1.1684789
1.1684313
1.1683636
1.1682711
1.1681636
1.1680507
1.1678755
1.167578
1.167422
1.1676108
1.0527849
1.0876152
1.067881
1.082768
1.076569
1.0837661
1.0835567
1.0875687
1.089868
1.0930013
1.0960388
1.0992339
1.1025132
1.105877
1.109308
1.1127905
1.1163066
1.1198367
1.1233602
1.126855
1.1302989
1.1336693
1.136944
1.140102
1.1431242
1.1459935
1.1486961
1.1512211
1.1535611
1.1557122
1.1576738
1.1594483
1.1610406
1.1624581
1.1637097
1.1648057
1.1657575
1.1665766
1.1672749
1.1678643
1.1683562
1.1687616
1.1690908
1.1693535
1.1695586
1.1697143
1.1698281
1.1699065
1.1699555
1.1699805
1.1699859
1.1699759
1.1699538
1.1699226
1.1698849
1.1698426
1.1697974
1.1697507
1.1697034
1.1696563
1.1696096
1.1695635
1.169518
1.1694725
1.1694265
1.1693792
1.1693295
1.1692761
1.1692174
1.1691519
1.1690786
1.1689944
1.1688928
1.1687718
1.1686427
1.1685051
1.1682911
1.1679698
1.1678518
1.1680859
1.0552938
1.0903752
1.0707358
1.0860576
1.0802365
1.0877051
1.0880977
1.0923502
1.0951938
1.0987132
1.1022065
1.1058365
1.1095468
1.1133266
1.1171532
1.1210039
1.1248543
1.1286783
1.1324488
1.1361384
1.1397198
1.1431673
1.146457
1.149568
1.1524833
1.1551897
1.1576786
1.1599457
1.1619908
1.1638176
1.1654329
1.1668462
1.1680692
1.1691148
1.169997
1.1707304
1.1713292
1.1718078
1.1721798
1.1724583
1.1726554
1.1727823
1.1728495
1.1728662
1.172841
1.1727814
1.1726941
1.1725849
1.1724591
1.1723211
1.1721747
1.1720232
1.1718693
1.1717153
1.171563
1.1714138
1.1712689
1.1711291
1.1709949
1.1708665
1.1707439
1.170627
1.1705152
1.170408
1.1703044
1.1702035
1.1701039
1.1700043
1.1699028
1.1697982
1.169689
1.1695713
1.1694393
1.1692946
1.1691487
1.1689867
1.1687345
1.168405
1.1683373
1.1685955
1.0585247
1.0937999
1.0745259
1.090217
1.0849815
1.0926864
1.0938172
1.0983914
1.101859
1.1058558
1.1098707
1.1139962
1.118183
1.1224093
1.1266448
1.1308582
1.1350165
1.1390859
1.1430325
1.1468241
1.1504309
1.1538268
1.1569908
1.159907
1.1625654
1.1649614
1.1670959
1.1689744
1.1706065
1.1720047
1.1731841
1.1741613
1.1749538
1.1755794
1.1760557
1.1764
1.1766284
1.1767564
1.1767981
1.1767666
1.1766738
1.1765302
1.1763456
1.1761282
1.1758856
1.1756243
1.1753499
1.1750672
1.1747805
1.1744932
1.1742083
1.1739281
1.1736547
1.1733895
1.1731337
1.1728882
1.1726536
1.17243
1.1722176
1.1720163
1.1718256
1.1716451
1.171474
1.1713114
1.1711562
1.1710074
1.1708633
1.1707224
1.1705831
1.170444
1.1703031
1.1701558
1.1699978
1.1698348
1.1696763
1.169491
1.1692033
1.1688813
1.1688752
1.1691298
1.0625598
1.0979778
1.0793383
1.095408
1.0909514
1.0989615
1.1009855
1.1059769
1.1101475
1.1147104
1.1193059
1.1239741
1.128664
1.1333409
1.137963
1.1424881
1.1468736
1.1510781
1.1550642
1.1587989
1.1622561
1.1654165
1.1682685
1.170808
1.1730374
1.1749654
1.176605
1.1779733
1.1790899
1.1799761
1.1806538
1.1811452
1.1814716
1.1816539
1.1817112
1.1816618
1.181522
1.1813069
1.1810299
1.1807031
1.180337
1.1799411
1.1795234
1.1790911
1.1786503
1.1782061
1.1777629
1.1773245
1.1768939
1.1764735
1.1760655
1.1756712
1.175292
1.1749286
1.1745816
1.1742513
1.1739375
1.1736403
1.1733593
1.1730939
1.1728434
1.1726071
1.1723839
1.1721728
1.1719726
1.1717819
1.171599
1.1714224
1.1712505
1.171082
1.170914
1.1707416
1.1705627
1.1703867
1.1702189
1.1700127
1.1696962
1.1693927
1.1694547
1.1696878
1.0675851
1.1033662
1.0854273
1.1019593
1.0984993
1.1068656
1.109931
1.1154417
1.1203824
1.1255914
1.1308132
1.1360458
1.1412268
1.1463043
1.1512226
1.1559285
1.1603733
1.1645152
1.1683213
1.1717682
1.174843
1.1775424
1.1798719
1.1818443
1.1834784
1.1847971
1.1858262
1.186593
1.1871253
1.1874503
1.1875945
1.1875824
1.1874371
1.1871796
1.1868289
1.1864022
1.1859145
1.1853793
1.1848083
1.1842117
1.1835982
1.1829754
1.1823498
1.1817268
1.1811109
1.180506
1.1799151
1.1793408
1.1787849
1.1782491
1.1777344
1.1772415
1.1767709
1.1763228
1.1758971
1.1754937
1.1751119
1.1747513
1.1744112
1.1740907
1.1737889
1.1735047
1.173237
1.1729844
1.1727457
1.1725193
1.1723036
1.172097
1.1718981
1.1717052
1.1715149
1.1713225
1.1711284
1.1709439
1.1707685
1.1705457
1.1702135
1.1699351
1.1700599
1.170274
1.0738947
1.1101953
1.0929927
1.1102183
1.1079853
1.1167468
1.1210081
1.1271647
1.1329402
1.1388567
1.1447136
1.1504688
1.1560422
1.1613647
1.1663719
1.1710095
1.1752358
1.1790225
1.1823556
1.185234
1.1876678
1.1896766
1.1912869
1.19253
1.1934399
1.194052
1.1944012
1.1945215
1.1944447
1.1942006
1.1938161
1.1933158
1.1927213
1.1920519
1.1913246
1.1905539
1.1897527
1.1889319
1.1881007
1.1872671
1.1864378
1.1856183
1.1848133
1.1840264
1.1832607
1.1825187
1.1818021
1.1811123
1.1804504
1.1798168
1.1792119
1.1786357
1.178088
1.1775684
1.1770765
1.1766114
1.1761723
1.1757584
1.1753686
1.1750018
1.1746569
1.1743325
1.1740275
1.1737403
1.1734696
1.1732138
1.1729711
1.1727402
1.1725196
1.1723074
1.1720997
1.1718927
1.1716894
1.1715004
1.1713178
1.1710822
1.1707521
1.1705109
1.1706839
1.1708729
1.0817618
1.118733
1.1025113
1.1204526
1.1198275
1.1290708
1.1346897
1.1416365
1.148276
1.1548818
1.1612692
1.1673619
1.1730688
1.1783191
1.1830587
1.1872537
1.1908894
1.1939691
1.1965104
1.198543
1.2001046
1.201238
1.2019884
1.2024015
1.2025217
1.2023907
1.2020475
1.2015274
1.2008619
1.2000793
1.1992041
1.1982579
1.1972591
1.1962238
1.1951654
1.1940955
1.1930237
1.1919582
1.1909057
1.1898716
1.1888606
1.1878761
1.1869211
1.1859976
1.1851074
1.1842516
1.1834309
1.1826456
1.1818959
1.1811816
1.1805023
1.1798573
1.179246
1.1786675
1.1781208
1.1776049
1.1771186
1.1766607
1.17623
1.1758252
1.1754449
1.1750877
1.1747521
1.1744369
1.1741403
1.1738608
1.1735968
1.173347
1.17311
1.1728832
1.172663
1.1724468
1.1722399
1.1720504
1.1718619
1.1716166
1.1713003
1.1711112
1.1713231
1.1714689
1.0913928
1.1292771
1.1147452
1.1332689
1.1347168
1.1445598
1.1516184
1.1594119
1.1667972
1.1738732
1.1804643
1.1864849
1.1918622
1.1965552
1.2005503
1.203858
1.2065084
1.208546
1.2100249
1.2110038
1.2115431
1.211702
1.2115366
1.2110987
1.2104351
1.2095878
1.2085933
1.2074839
1.2062869
1.2050261
1.2037214
1.2023898
1.2010454
1.1997002
1.1983639
1.1970444
1.1957485
1.1944814
1.1932472
1.1920493
1.1908902
1.1897717
1.188695
1.187661
1.1866701
1.1857224
1.1848176
1.1839552
1.1831347
1.1823552
1.1816158
1.1809153
1.1802526
1.1796265
1.1790356
1.1784786
1.1779542
1.1774608
1.1769972
1.1765617
1.176153
1.1757695
1.1754098
1.1750723
1.1747554
1.1744577
1.1741775
1.1739138
1.1736648
1.1734279
1.1731997
1.1729796
1.1727739
1.1725867
1.1723948
1.1721459
1.1718525
1.1717195
1.1719561
1.1720493
1.1035922
1.1427328
1.1304875
1.1496453
1.1535968
1.1640638
1.1723938
1.180819
1.1885323
1.1955452
1.20173
1.2070431
1.2114722
1.2150415
1.2178002
1.2198158
1.2211656
1.221931
1.222193
1.2220284
1.221508
1.2206958
1.219648
1.2184139
1.2170355
1.2155489
1.2139845
1.2123676
1.2107195
1.2090579
1.207397
1.2057488
1.2041228
1.2025267
1.2009666
1.1994474
1.1979727
1.1965452
1.1951671
1.1938396
1.1925635
1.1913392
1.1901667
1.1890456
1.1879754
1.1869552
1.1859841
1.185061
1.1841846
1.1833536
1.1825666
1.1818222
1.1811188
1.180455
1.1798291
1.1792396
1.1786849
1.1781635
1.1776738
1.1772143
1.1767833
1.1763793
1.1760008
1.1756462
1.175314
1.1750027
1.1747109
1.1744375
1.1741805
1.1739374
1.1737054
1.1734858
1.1732848
1.1731018
1.1729095
1.1726652
1.1724031
1.1723192
1.1725578
1.1726007
1.1198297
1.1602137
1.1510761
1.1705824
1.1773034
1.1881785
1.1971528
1.2055222
1.2127496
1.2188564
1.2238228
1.2276989
1.2305635
1.2325187
1.2336766
1.2341508
1.23405
1.2334743
1.2325134
1.2312455
1.2297378
1.2280475
1.2262224
1.2243021
1.2223194
1.2203012
1.2182693
1.2162414
1.2142316
1.2122513
1.2103095
1.2084131
1.2065674
1.2047766
1.2030434
1.2013701
1.1997577
1.1982071
1.1967185
1.1952915
1.1939257
1.1926203
1.1913742
1.1901862
1.189055
1.187979
1.1869568
1.1859867
1.185067
1.1841961
1.1833722
1.1825936
1.1818585
1.1811652
1.180512
1.1798971
1.1793188
1.1787756
1.1782657
1.1777875
1.1773393
1.1769197
1.1765271
1.1761598
1.1758164
1.1754956
1.1751959
1.1749162
1.1746546
1.1744084
1.1741762
1.1739604
1.173766
1.1735881
1.1733983
1.1731665
1.1729414
1.1728971
1.1731204
1.1731287
1.1417567
1.1829472
1.1778231
1.1969311
1.2059388
1.2165338
1.2250095
1.232167
1.2378146
1.2420642
1.2450301
1.2468711
1.2477503
1.2478283
1.2472525
1.2461539
1.2446454
1.2428226
1.2407649
1.2385375
1.2361936
1.2337759
1.2313189
1.2288499
1.2263906
1.2239579
1.2215651
1.2192225
1.2169377
1.2147167
1.2125634
1.210481
1.2084712
1.2065352
1.2046732
1.2028852
1.2011706
1.1995284
1.1979575
1.1964565
1.1950239
1.1936579
1.1923567
1.1911185
1.1899413
1.1888232
1.1877623
1.1867565
1.1858039
1.1849025
1.1840503
1.1832455
1.182486
1.18177
1.1810957
1.1804612
1.1798648
1.1793047
1.1787793
1.1782869
1.1778258
1.1773945
1.1769914
1.176615
1.1762638
1.1759365
1.175632
1.1753488
1.175085
1.1748385
1.1746088
1.1743989
1.1742118
1.1740393
1.173855
1.1736414
1.1734562
1.1734452
1.1736417
1.173605
1.1719676
1.2115235
1.2116166
1.2293219
1.238246
1.2471594
1.2537303
1.258488
1.2615511
1.2631988
1.2636716
1.2632043
1.2619991
1.2602284
1.2580342
1.255532
1.2528138
1.2499527
1.2470059
1.244018
1.2410235
1.238049
1.2351146
1.2322357
1.2294235
1.2266865
1.2240303
1.2214592
1.2189756
1.216581
1.2142758
1.2120598
1.2099324
1.2078922
1.2059378
1.2040675
1.2022793
1.2005712
1.1989409
1.1973863
1.195905
1.1944948
1.1931532
1.191878
1.1906669
1.1895176
1.1884278
1.1873952
1.1864178
1.1854933
1.1846196
1.1837947
1.1830165
1.1822831
1.1815925
1.180943
1.1803326
1.1797596
1.1792223
1.178719
1.1782481
1.177808
1.1773973
1.1770143
1.1766577
1.1763264
1.1760191
1.1757343
1.1754703
1.1752254
1.175
1.1747967
1.1746165
1.1744494
1.1742737
1.174083
1.1739361
1.1739469
1.1741111
1.174052
1.2129808
1.2475379
1.2504941
1.2644832
1.2720209
1.2775979
1.2807089
1.282039
1.2819028
1.2806691
1.2786141
1.2759666
1.2729033
1.269561
1.2660439
1.2624305
1.2587798
1.2551356
1.2515302
1.2479872
1.2445237
1.2411516
1.2378791
1.2347116
1.2316523
1.2287028
1.2258634
1.2231334
1.2205117
1.2179965
1.2155856
1.2132765
1.2110668
1.2089536
1.2069342
1.2050056
1.2031651
1.2014097
1.1997367
1.1981431
1.1966263
1.1951834
1.1938118
1.1925089
1.1912722
1.190099
1.188987
1.1879337
1.1869369
1.1859942
1.1851035
1.1842626
1.1834695
1.182722
1.1820183
1.1813565
1.1807347
1.1801512
1.1796042
1.1790921
1.1786133
1.1781662
1.1777494
1.1773614
1.1770009
1.1766667
1.1763577
1.1760723
1.1758091
1.1755669
1.1753462
1.1751492
1.1749748
1.1748132
1.1746487
1.174483
1.1743681
1.174386
1.1745117
1.1744463
1.2621971
1.2883575
1.2926153
1.3002953
1.3031779
1.3040501
1.3029892
1.3006774
1.2974701
1.2936766
1.2895108
1.2851309
1.2806487
1.2761443
1.2716736
1.2672756
1.262977
1.2587956
1.2547429
1.2508256
1.2470474
1.2434095
1.2399114
1.2365513
1.2333269
1.2302351
1.2272724
1.2244351
1.2217194
1.2191215
1.2166375
1.2142635
1.2119958
1.2098304
1.207764
1.2057928
1.2039134
1.2021224
1.2004166
1.1987929
1.197248
1.1957791
1.1943832
1.1930576
1.1917994
1.1906062
1.1894752
1.1884041
1.1873903
1.1864317
1.1855259
1.1846707
1.183864
1.1831039
1.1823882
1.1817151
1.1810828
1.1804896
1.1799336
1.1794134
1.1789272
1.1784736
1.1780512
1.1776585
1.1772944
1.1769576
1.176647
1.1763611
1.1760988
1.1758593
1.1756431
1.1754511
1.1752814
1.175126
1.1749753
1.1748348
1.1747436
1.1747517
1.174829
1.1747724
1.3169798
1.3286872
1.3301232
1.3302161
1.3275636
1.3236674
1.3188409
1.313518
1.3079351
1.3022642
1.296614
1.2910555
1.2856333
1.2803747
1.2752953
1.270403
1.2657003
1.2611865
1.2568585
1.2527119
1.2487414
1.2449413
1.2413054
1.2378276
1.234502
1.2313226
1.2282836
1.2253795
1.2226049
1.2199547
1.217424
1.215008
1.2127023
1.2105025
1.2084045
1.2064043
1.2044981
1.2026823
1.2009533
1.1993079
1.1977427
1.1962546
1.1948406
1.1934978
1.1922233
1.1910146
1.1898689
1.1887838
1.1877567
1.1867854
1.1858675
1.1850008
1.1841833
1.1834128
1.1826873
1.1820051
1.1813643
1.180763
1.1801998
1.1796728
1.1791806
1.1787216
1.1782946
1.1778981
1.177531
1.177192
1.1768801
1.176594
1.1763326
1.1760956
1.1758829
1.1756947
1.1755287
1.1753798
1.1752433
1.1751251
1.175049
1.1750413
1.1750777
1.1750378
1.3669922
1.3612349
1.3568617
1.3508859
1.3436851
1.3362646
1.3287961
1.3214638
1.3143504
1.3075017
1.3009375
1.2946627
1.2886742
1.2829637
1.2775208
1.2723336
1.2673899
1.2626776
1.2581852
1.2539013
1.2498155
1.2459178
1.2421989
1.2386502
1.2352634
1.2320309
1.2289456
1.2260009
1.2231905
1.2205084
1.2179492
1.2155076
1.2131786
1.2109577
1.2088403
1.2068223
1.2048997
1.2030685
1.2013253
1.1996664
1.1980885
1.1965885
1.1951631
1.1938096
1.1925249
1.1913064
1.1901513
1.1890573
1.1880216
1.1870421
1.1861164
1.1852423
1.1844176
1.1836403
1.1829084
1.18222
1.1815734
1.1809667
1.1803984
1.1798667
1.1793702
1.1789074
1.1784769
1.1780775
1.1777079
1.1773671
1.1770538
1.176767
1.176506
1.1762701
1.1760591
1.1758725
1.1757086
1.1755647
1.175439
1.1753358
1.1752676
1.1752446
1.1752513
1.1752292
1.3940232
1.3827014
1.3718955
1.3624403
1.3531149
1.3441174
1.3355234
1.3273501
1.3195977
1.3122504
1.3052884
1.2986892
1.2924305
1.2864905
1.2808489
1.2754869
1.2703869
1.265533
1.2609106
1.2565063
1.2523079
1.248304
1.2444843
1.2408394
1.2373606
1.2340396
1.2308691
1.227842
1.2249519
1.2221926
1.2195585
1.2170443
1.2146449
1.2123557
1.210172
1.2080896
1.2061046
1.204213
1.2024111
1.2006955
1.1990628
1.1975098
1.1960333
1.1946304
1.1932983
1.192034
1.190835
1.1896988
1.1886227
1.1876045
1.1866417
1.1857323
1.1848739
1.1840646
1.1833024
1.1825853
1.1819115
1.1812792
1.1806868
1.1801327
1.1796152
1.1791329
1.1786845
1.1782686
1.1778841
1.1775297
1.1772044
1.1769072
1.1766373
1.1763941
1.1761772
1.1759856
1.175818
1.1756731
1.1755507
1.1754539
1.1753875
1.1753537
1.1753441
1.1753341
1.1643032
1.1704357
1.1832233
1.1945284
1.1986183
1.1984498
1.1994271
1.1998127
1.1999599
1.1998853
1.1995784
1.19914
1.1985682
1.1979274
1.1972459
1.1965352
1.1957934
1.1950251
1.1942348
1.1934261
1.192602
1.1917656
1.1909194
1.1900656
1.1892066
1.1883442
1.1874804
1.1866169
1.1857556
1.1848979
1.1840455
1.1831998
1.1823624
1.1815346
1.1807178
1.1799134
1.1791226
1.1783468
1.1775872
1.1768451
1.1761217
1.1754182
1.1747359
1.1740758
1.1734392
1.1728272
1.1722408
1.1716811
1.1711489
1.1706452
1.1701707
1.169726
1.1693116
1.1689279
1.1685752
1.1682533
1.1679622
1.1677014
1.1674704
1.1672682
1.1670935
1.1669447
1.1668201
1.1667175
1.1666346
1.1665678
1.1665159
1.1664715
1.1664418
1.166401
1.1663935
1.1663152
1.1663551
1.1661613
1.1663381
1.1658736
1.166335
1.1654255
1.1662936
1.1647953
1.1676361
1.1758089
1.1919246
1.1970222
1.1971021
1.1966242
1.1959014
1.1955341
1.1951102
1.1946423
1.1941422
1.1936769
1.1932101
1.1927405
1.1922465
1.1917286
1.191186
1.1906203
1.190032
1.1894219
1.1887914
1.1881419
1.187475
1.1867927
1.1860969
1.1853894
1.1846723
1.1839477
1.1832173
1.1824833
1.1817476
1.1810119
1.1802782
1.1795483
1.1788239
1.1781069
1.1773989
1.1767016
1.1760166
1.1753455
1.1746899
1.1740512
1.1734311
1.1728308
1.1722519
1.1716956
1.1711633
1.170656
1.170175
1.169721
1.1692951
1.1688978
1.1685298
1.1681915
1.1678831
1.1676045
1.1673556
1.1671359
1.1669449
1.1667814
1.1666441
1.1665312
1.1664412
1.1663716
1.16632
1.1662831
1.1662591
1.1662415
1.1662359
1.1662193
1.1662308
1.1661766
1.1662276
1.166059
1.1662376
1.1658043
1.1662647
1.165372
1.1662635
1.1647327
1.1584051
1.1740921
1.1861357
1.1908077
1.1906467
1.1901286
1.189522
1.1893208
1.1890165
1.1888201
1.1885579
1.1883078
1.1880079
1.1876928
1.187347
1.1869801
1.1865884
1.1861737
1.1857362
1.1852769
1.1847967
1.1842969
1.1837786
1.1832431
1.1826918
1.1821262
1.1815477
1.180958
1.1803587
1.1797515
1.1791381
1.1785204
1.1779
1.1772789
1.1766589
1.1760418
1.1754296
1.174824
1.1742269
1.17364
1.1730652
1.1725041
1.1719584
1.1714299
1.1709202
1.1704306
1.1699628
1.1695181
1.1690976
1.1687024
1.1683335
1.1679918
1.1676777
1.1673918
1.1671343
1.1669052
1.1667043
1.166531
1.1663848
1.1662645
1.1661687
1.1660956
1.1660435
1.16601
1.1659926
1.1659879
1.1659941
1.166005
1.1660252
1.1660341
1.1660661
1.1660363
1.1661003
1.1659559
1.1661383
1.1657345
1.1661935
1.1653186
1.1662342
1.1646702
1.1573699
1.1770906
1.1846495
1.187992
1.1868353
1.186452
1.1857218
1.1854691
1.1850197
1.1847188
1.1843409
1.1840301
1.1836936
1.1833772
1.1830477
1.1827164
1.1823753
1.1820258
1.1816656
1.181294
1.1809102
1.1805137
1.1801042
1.1796816
1.1792462
1.1787983
1.1783385
1.1778676
1.1773865
1.1768964
1.1763985
1.1758941
1.1753848
1.1748721
1.1743577
1.1738431
1.1733303
1.172821
1.172317
1.1718201
1.1713322
1.170855
1.1703905
1.1699403
1.1695063
1.1690901
1.1686932
1.168317
1.167963
1.1676323
1.1673259
1.1670447
1.1667893
1.1665603
1.1663579
1.166182
1.1660325
1.1659089
1.1658104
1.1657359
1.1656839
1.1656526
1.1656401
1.1656442
1.1656622
1.1656908
1.1657279
1.165768
1.1658146
1.1658492
1.1659025
1.1658965
1.1659749
1.1658528
1.166042
1.1656639
1.1661255
1.1652659
1.166204
1.1646123
1.155103
1.1751319
1.1805592
1.1832101
1.1815639
1.1814346
1.1806684
1.1805412
1.1801031
1.1799007
1.1795842
1.1793601
1.179092
1.1788531
1.1785987
1.178348
1.17809
1.1778274
1.1775573
1.1772788
1.1769913
1.1766938
1.176386
1.1760675
1.1757381
1.1753979
1.1750471
1.174686
1.1743152
1.1739354
1.1735473
1.1731521
1.1727509
1.1723448
1.1719352
1.1715237
1.1711117
1.170701
1.1702931
1.1698899
1.1694932
1.1691047
1.1687264
1.16836
1.1680072
1.1676699
1.1673496
1.1670477
1.1667658
1.1665049
1.1662663
1.1660507
1.165859
1.1656915
1.1655485
1.16543
1.1653358
1.1652653
1.1652178
1.165192
1.1651864
1.1651992
1.1652285
1.165272
1.165327
1.1653903
1.1654596
1.1655297
1.1656036
1.1656644
1.1657397
1.1657574
1.165851
1.1657509
1.1659478
1.1655942
1.166059
1.1652143
1.1661733
1.1645577
1.1498169
1.1720699
1.1758574
1.1782708
1.1763189
1.1765433
1.175748
1.1757718
1.1753532
1.1752431
1.1749693
1.1748185
1.1746104
1.1744442
1.1742592
1.1740825
1.1738992
1.1737143
1.1735241
1.1733281
1.1731255
1.1729156
1.1726979
1.1724719
1.1722372
1.1719937
1.1717414
1.1714802
1.1712104
1.1709323
1.1706466
1.1703539
1.1700549
1.1697507
1.1694424
1.169131
1.1688181
1.168505
1.1681933
1.1678845
1.1675804
1.1672826
1.166993
1.1667133
1.1664452
1.1661904
1.1659505
1.1657269
1.1655211
1.1653342
1.1651674
1.1650214
1.1648971
1.1647948
1.1647147
1.164657
1.1646211
1.1646066
1.1646126
1.1646379
1.1646809
1.1647397
1.1648124
1.1648967
1.1649899
1.1650888
1.165191
1.1652919
1.1653936
1.1654808
1.1655784
1.1656196
1.1657292
1.1656508
1.1658558
1.1655256
1.1659944
1.1651643
1.1661438
1.1645047
1.1444841
1.1694009
1.1709815
1.1733603
1.1711947
1.1717088
1.170869
1.1710392
1.170644
1.1706394
1.1704231
1.1703575
1.1702166
1.1701261
1.1700101
1.1699055
1.1697932
1.1696814
1.1695658
1.1694463
1.1693221
1.1691926
1.1690573
1.1689156
1.1687671
1.1686116
1.1684487
1.1682786
1.1681012
1.1679168
1.1677256
1.1675282
1.1673252
1.1671172
1.1669051
1.1666899
1.1664728
1.166255
1.1660377
1.1658225
1.1656109
1.1654044
1.1652046
1.1650133
1.1648319
1.164662
1.1645053
1.1643629
1.1642363
1.1641266
1.1640348
1.1639618
1.1639081
1.1638742
1.1638602
1.1638661
1.1638913
1.1639354
1.1639973
1.1640758
1.1641691
1.1642756
1.1643932