/*--------------------------------*- C++ -*----------------------------------*\
| =========                 |                                                 |
| \\      /  F ield         | OpenFOAM: The Open Source CFD Toolbox           |
|  \\    /   O peration     | Version:  2512                                  |
|   \\  /    A nd           | Website:  www.openfoam.com                      |
|    \\/     M anipulation  |                                                 |
\*---------------------------------------------------------------------------*/
FoamFile
{
    version     2.0;
    format      ascii;
    arch        "LSB;label=32;scalar=64";
    class       volScalarField;
    location    "0.146";
    object      T;
}
// * * * * * * * * * * * * * * * * * * * * * * * * * * * * * * * * * * * * * //

dimensions      [0 0 0 1 0 0 0];

internalField   nonuniform List<scalar> 
16000
(
292.62108
284.83062
289.23619
286.93626
288.60193
287.84897
288.51496
288.31543
288.6181
288.62958
288.79457
288.88161
289.00628
289.11685
289.23553
289.35441
289.47658
289.60141
289.72931
289.86037
289.99474
290.13248
290.27365
290.41829
290.56638
290.7179
290.87276
291.03088
291.19212
291.35632
291.52328
291.69278
291.86455
292.0383
292.21372
292.39045
292.56814
292.74639
292.9248
293.10296
293.28043
293.4568
293.63165
293.80456
293.97513
294.143
294.30779
294.4692
294.62693
294.78072
294.93035
295.07564
295.21646
295.3527
295.4843
295.61125
295.73355
295.85126
295.96445
296.07328
296.17794
296.27866
296.37568
296.46934
296.55996
296.64792
296.73356
296.81726
296.89946
296.98071
297.06177
297.14338
297.22601
297.30979
297.395
297.48105
297.58082
297.64352
297.80774
297.82513
292.30914
284.41323
288.96231
286.5539
288.31289
287.49507
288.21961
287.99379
288.31968
288.33278
288.50466
288.60103
288.73141
288.85103
288.97724
289.10477
289.23551
289.3693
289.50636
289.64685
289.79085
289.93844
290.08965
290.24447
290.40288
290.5648
290.73014
290.89874
291.07044
291.24502
291.42225
291.60184
291.78349
291.96685
292.15156
292.33722
292.52341
292.70971
292.89567
293.08084
293.26477
293.44701
293.62713
293.80472
293.97936
294.15071
294.31842
294.48219
294.64176
294.79692
294.94747
295.09329
295.23429
295.37041
295.50163
295.62798
295.74951
295.86633
295.97854
296.08633
296.1899
296.28952
296.38545
296.47804
296.56763
296.6546
296.73932
296.82218
296.90359
296.98413
297.06454
297.14562
297.22792
297.31153
297.39661
297.48485
297.57663
297.66328
297.78595
297.85202
291.98166
284.03334
288.67077
286.23043
288.01675
287.20228
287.92774
287.72043
288.04342
288.07359
288.24766
288.35633
288.49373
288.62339
288.75882
288.89628
289.03715
289.18136
289.32913
289.48057
289.63576
289.79473
289.95748
290.12397
290.29414
290.46785
290.64497
290.82529
291.0086
291.19462
291.38304
291.57354
291.76572
291.9592
292.15353
292.34826
292.54293
292.73704
292.93012
293.12167
293.31123
293.49832
293.68251
293.86338
294.04056
294.21369
294.38249
294.54669
294.70608
294.8605
295.00983
295.15399
295.29296
295.42675
295.5554
295.679
295.79766
295.91152
296.02075
296.12556
296.2262
296.32296
296.41613
296.50606
296.59312
296.6777
296.76017
296.84094
296.92041
296.99914
297.07787
297.1574
297.23834
297.32078
297.40493
297.49205
297.58211
297.67365
297.78492
297.86083
291.68846
283.68478
288.42574
285.94288
287.76844
286.93757
287.67574
287.47891
287.80506
287.8503
288.02855
288.14995
288.29545
288.43605
288.58169
288.73005
288.88198
289.03756
289.19692
289.36017
289.52733
289.69842
289.87339
290.05216
290.23462
290.42059
290.60988
290.80222
290.99732
291.19485
291.39443
291.59565
291.79807
292.0012
292.20455
292.4076
292.60983
292.8107
293.0097
293.2063
293.40001
293.59038
293.77696
293.95937
294.13726
294.31033
294.47833
294.64107
294.79841
294.95024
295.09652
295.23726
295.3725
295.50232
295.62684
295.74619
295.86056
295.97013
296.07513
296.17579
296.2724
296.36527
296.45473
296.54111
296.62482
296.70623
296.78575
296.86376
296.94069
297.01706
297.09358
297.17111
297.25025
297.33119
297.41408
297.49971
297.58848
297.68248
297.78221
297.87298
291.41917
283.37101
288.19063
285.6839
287.56627
286.71575
287.45759
287.28011
287.60523
287.66977
287.85223
287.98804
288.14312
288.29585
288.45312
288.61359
288.77783
288.94596
289.11806
289.29423
289.47446
289.65873
289.84694
290.03897
290.23464
290.43372
290.63592
290.84091
291.04833
291.25774
291.46869
291.68067
291.89316
292.10559
292.3174
292.52801
292.73683
292.94329
293.14684
293.34694
293.54312
293.73491
293.92192
294.10381
294.28027
294.45107
294.61606
294.7751
294.92814
295.07519
295.21627
295.35149
295.48096
295.60485
295.72335
295.83667
295.94504
296.04871
296.14794
296.24301
296.33423
296.42195
296.50648
296.58821
296.66751
296.74479
296.82044
296.89484
296.96842
297.04168
297.1153
297.19013
297.26682
297.34562
297.42652
297.51
297.59749
297.6908
297.78546
297.88026
291.17972
283.1021
287.99307
285.46959
287.35899
286.541
287.28881
287.12857
287.45355
287.53757
287.7253
287.87621
288.04216
288.2078
288.37768
288.55119
288.72871
288.91037
289.09625
289.28638
289.48072
289.67919
289.88163
290.08785
290.29757
290.51048
290.7262
290.94429
291.16428
291.38565
291.60782
291.83019
292.05215
292.27306
292.49226
292.70912
292.92302
293.13334
293.33954
293.54109
293.73752
293.92844
294.11349
294.2924
294.46496
294.63104
294.79057
294.94352
295.08996
295.22998
295.36372
295.49137
295.61315
295.72929
295.84006
295.94574
296.04662
296.14299
296.23515
296.32343
296.40815
296.48966
296.56831
296.64448
296.71854
296.79089
296.86193
296.93205
297.00164
297.07118
297.14134
297.21292
297.28664
297.36279
297.44119
297.52216
297.60777
297.69933
297.78923
297.8877
290.97215
282.87774
287.82893
285.30289
287.20595
286.41806
287.1565
287.03016
287.34641
287.45716
287.65113
287.81747
287.99543
288.17481
288.35851
288.54632
288.7385
288.93515
289.13627
289.34185
289.55175
289.76582
289.98378
290.20535
290.43014
290.65771
290.88758
291.11917
291.35189
291.5851
291.8181
292.0502
292.28068
292.50882
292.7339
292.95525
293.17221
293.38419
293.59063
293.79107
293.9851
294.17239
294.35269
294.52584
294.69174
294.85037
295.00179
295.14612
295.28351
295.41418
295.53839
295.65642
295.76857
295.87518
295.97656
296.07306
296.16502
296.25278
296.33666
296.41701
296.49418
296.56852
296.64039
296.71016
296.7782
296.8449
296.91066
296.97583
297.04082
297.10608
297.17221
297.24001
297.31023
297.38319
297.45856
297.53658
297.6198
297.7086
297.79458
297.89424
290.79645
282.69816
287.6984
285.17267
287.0812
286.31987
287.06446
286.95258
287.29619
287.42677
287.62865
287.81149
288.00364
288.19867
288.39832
288.60255
288.8115
289.02518
289.24353
289.46642
289.69363
289.92486
290.15975
290.39786
290.63867
290.88161
291.12601
291.3712
291.61642
291.8609
292.10382
292.34439
292.5818
292.81525
293.04402
293.26738
293.48472
293.69546
293.89912
294.09532
294.28375
294.46421
294.63658
294.80085
294.95706
295.10534
295.2459
295.37899
295.50489
295.62396
295.73655
295.84303
295.9438
296.03925
296.12978
296.21576
296.29758
296.37561
296.45019
296.52169
296.59046
296.65685
296.72121
296.78391
296.8453
296.90577
296.96567
297.02538
297.08527
297.14576
297.2074
297.27095
297.33721
297.40651
297.47838
297.55311
297.63343
297.71875
297.80063
297.90085
290.64496
282.55961
287.60309
285.08074
287.01558
286.31436
287.04165
286.97325
287.28705
287.44595
287.66
287.86206
288.07171
288.28516
288.50349
288.72672
288.95489
289.18795
289.42571
289.66794
289.91428
290.16429
290.41744
290.67314
290.9307
291.18936
291.4483
291.70667
291.96357
292.21809
292.4693
292.71631
292.95824
293.19429
293.42371
293.64583
293.86007
294.06597
294.26317
294.45141
294.63056
294.80057
294.96152
295.11356
295.25691
295.39188
295.51882
295.63813
295.75023
295.85557
295.95462
296.04783
296.13566
296.21858
296.297
296.37136
296.44204
296.50945
296.57393
296.63585
296.69555
296.75338
296.80967
296.86478
296.91904
296.9728
297.02642
297.08024
297.13462
297.18994
297.2467
297.30561
297.3675
297.43268
297.50065
297.57179
297.64868
297.72975
297.8076
297.90766
290.51713
282.46389
287.54771
285.04986
286.99962
286.30239
287.0275
287.00999
287.33872
287.52582
287.75544
287.9787
288.20866
288.44314
288.68283
288.92768
289.17761
289.43245
289.69186
289.95544
290.22264
290.49286
290.76535
291.03931
291.31384
291.58799
291.86076
292.1311
292.39797
292.66034
292.91719
293.16757
293.4106
293.64548
293.87154
294.08821
294.29505
294.49176
294.67817
294.85422
295.02
295.17568
295.32154
295.45793
295.58529
295.70407
295.8148
295.918
296.01422
296.104
296.18789
296.26642
296.34008
296.40938
296.47476
296.53667
296.59551
296.65166
296.70549
296.75733
296.80752
296.85639
296.90425
296.95142
296.99822
297.04497
297.092
297.13963
297.18821
297.23806
297.28964
297.34361
297.40078
297.46146
297.52523
297.59254
297.66553
297.74162
297.81534
297.91485
290.41596
282.41851
287.5356
285.11082
287.0294
286.4133
287.08968
287.14725
287.45539
287.67309
287.92245
288.16961
288.4232
288.68183
288.94592
289.2153
289.48974
289.76887
290.05216
290.33897
290.62854
290.92001
291.21238
291.5046
291.79554
292.08402
292.36884
292.6488
292.92271
293.18947
293.44802
293.69742
293.93686
294.16565
294.38326
294.58934
294.78366
294.96618
295.13698
295.29627
295.4444
295.58179
295.70896
295.82646
295.93491
296.03494
296.1272
296.21234
296.291
296.36379
296.43131
296.49412
296.55275
296.60771
296.65946
296.70842
296.755
296.79956
296.84243
296.88395
296.92442
296.96414
297.00339
297.04245
297.08163
297.12121
297.16148
297.20277
297.24535
297.28955
297.33575
297.38457
297.43674
297.49261
297.55193
297.61528
297.68393
297.75446
297.82399
297.92246
290.3479
282.4332
287.5723
285.20425
287.08393
286.55091
287.23028
287.32203
287.6471
287.89678
288.17056
288.44499
288.72582
289.01206
289.30387
289.60089
289.90266
290.20855
290.51775
290.82934
291.14224
291.45528
291.76718
292.0766
292.38213
292.6824
292.97602
293.26166
293.53807
293.80413
294.05886
294.30144
294.53123
294.74778
294.95085
295.14038
295.31647
295.4794
295.62957
295.76751
295.89383
296.00923
296.11443
296.2102
296.2973
296.37651
296.44858
296.51423
296.57416
296.62902
296.67942
296.72595
296.76912
296.80943
296.84731
296.88318
296.9174
296.95031
296.98222
297.01342
297.04418
297.07476
297.10541
297.13639
297.16794
297.20034
297.23384
297.26872
297.30525
297.34371
297.38444
297.42799
297.47498
297.52578
297.58051
297.63981
297.70376
297.76828
297.83374
297.93067
290.31902
282.51829
287.66997
285.38785
287.21036
286.7772
287.43181
287.5862
287.92307
288.20748
288.51055
288.81621
289.12839
289.44613
289.76927
290.09718
290.42905
290.76391
291.10058
291.43775
291.77396
292.10769
292.43731
292.7612
293.07772
293.38528
293.68241
293.96775
294.2401
294.49848
294.74212
294.9705
295.18331
295.38049
295.5622
295.72877
295.88071
296.01868
296.14343
296.25579
296.35666
296.44694
296.52757
296.59944
296.66345
296.72046
296.77126
296.81662
296.85725
296.8938
296.92688
296.95702
296.98473
297.01047
297.03463
297.05759
297.07967
297.10116
297.12234
297.14345
297.16472
297.18638
297.20864
297.2317
297.2558
297.28114
297.30797
297.33653
297.36705
297.39979
297.43507
297.47332
297.51503
297.56061
297.61067
297.66586
297.72479
297.78284
297.84447
297.93977
290.32686
282.67881
287.82721
285.62948
287.42745
287.07826
287.72166
287.93366
288.29412
288.61696
288.955
289.29679
289.64501
289.99852
290.35677
290.71869
291.08301
291.4483
291.8129
292.17505
292.53285
292.88439
293.22771
293.56093
293.88225
294.19003
294.48282
294.75944
295.01895
295.26072
295.48442
295.69
295.87765
296.04784
296.2012
296.33855
296.46083
296.56906
296.66432
296.74772
296.82036
296.88332
296.93765
296.98435
297.02437
297.05858
297.08778
297.11274
297.13413
297.15256
297.16859
297.18273
297.19541
297.20704
297.21797
297.22851
297.23893
297.24949
297.2604
297.27187
297.28408
297.2972
297.31142
297.3269
297.34383
297.36238
297.38277
297.40518
297.42985
297.457
297.48692
297.51994
297.55637
297.5967
297.64202
297.69307
297.74681
297.79826
297.8563
297.94928
290.37812
282.93262
288.04735
285.96414
287.72887
287.47323
288.10769
288.38346
288.77477
289.141
289.52017
289.90358
290.29286
290.68647
291.08323
291.48151
291.87946
292.27504
292.66603
293.05016
293.42509
293.78853
294.13831
294.47241
294.78908
295.08686
295.36464
295.62167
295.85758
296.07235
296.26628
296.43996
296.59424
296.73014
296.84884
296.95159
297.03973
297.11458
297.17749
297.22973
297.27255
297.30711
297.3345
297.35574
297.37176
297.38339
297.39142
297.39652
297.39931
297.40034
297.4001
297.39902
297.39748
297.39579
297.39426
297.39314
297.39264
297.39296
297.39425
297.39669
297.40041
297.40554
297.41221
297.42056
297.43072
297.44286
297.45712
297.47368
297.49273
297.5145
297.53924
297.56718
297.59846
297.6336
297.67417
297.72091
297.7694
297.81452
297.86937
297.95869
290.47705
283.30041
288.31578
286.39533
288.10747
287.972
288.60681
288.94998
289.38266
289.79889
290.22614
290.65712
291.09233
291.52963
291.96705
292.40224
292.83262
293.25546
293.66794
294.06728
294.45078
294.816
295.16075
295.48327
295.78221
296.05669
296.30633
296.53115
296.73163
296.90856
297.06304
297.19639
297.31009
297.40571
297.48489
297.54924
297.60037
297.63981
297.66901
297.68935
297.70207
297.70836
297.70925
297.70571
297.69858
297.68864
297.67656
297.66294
297.6483
297.6331
297.61775
297.60258
297.5879
297.57396
297.56098
297.54915
297.53863
297.52955
297.52203
297.51618
297.5121
297.50988
297.5096
297.51136
297.51526
297.52143
297.52998
297.54105
297.55481
297.57147
297.59128
297.61434
297.64067
297.67085
297.70668
297.74879
297.79202
297.83146
297.88336
297.96803
290.62735
283.79261
288.65096
286.93779
288.59744
288.59298
289.23978
289.6572
290.1421
290.61584
291.09793
291.58168
292.06629
292.54881
293.02631
293.49552
293.95301
294.39536
294.81923
295.22154
295.59961
295.95126
296.27487
296.56942
296.83452
297.07034
297.27756
297.45728
297.61097
297.74034
297.84725
297.9337
298.00169
298.0532
298.09014
298.11435
298.12754
298.1313
298.12708
298.1162
298.09986
298.07913
298.05494
298.02815
297.99948
297.96958
297.93901
297.90826
297.87775
297.84782
297.81878
297.7909
297.76439
297.73942
297.71616
297.69471
297.67519
297.65767
297.64224
297.62894
297.61783
297.60896
297.60239
297.59817
297.59637
297.59708
297.60038
297.60639
297.61524
297.62713
297.64227
297.66069
297.68238
297.70797
297.73915
297.77619
297.81397
297.84875
297.89785
297.97684
290.83367
284.3678
289.08318
287.6148
289.22045
289.36377
290.03708
290.53553
291.08323
291.62142
292.16367
292.70321
293.23771
293.76303
294.27506
294.76951
295.24218
295.6892
296.10721
296.4935
296.8461
297.16389
297.4465
297.69432
297.90836
298.09017
298.24172
298.36523
298.46311
298.53786
298.59195
298.62781
298.64774
298.65392
298.64835
298.63287
298.60915
298.57869
298.54281
298.50271
298.45942
298.41385
298.36679
298.31893
298.27086
298.22308
298.17602
298.13004
298.08546
298.04251
298.00141
297.96233
297.9254
297.89074
297.85843
297.82853
297.80109
297.77615
297.75372
297.73384
297.71651
297.70175
297.68958
297.68002
297.67311
297.66891
297.66747
297.66887
297.67323
297.68073
297.69151
297.70556
297.72295
297.74438
297.77115
297.80277
297.8347
297.86568
297.91266
297.98491
291.11297
285.09565
289.69304
288.46419
290.01416
290.31845
291.03467
291.62037
292.23986
292.84786
293.45268
294.04677
294.62579
295.18418
295.71667
296.21829
296.68477
297.11272
297.4998
297.84473
298.14728
298.40819
298.62899
298.81187
298.95946
299.07472
299.16074
299.22069
299.25762
299.27451
299.27412
299.25903
299.23157
299.19387
299.14781
299.09509
299.03717
298.97536
298.91077
298.84439
298.77706
298.70948
298.64228
298.57596
298.51095
298.44762
298.38626
298.32712
298.27039
298.21622
298.16473
298.11601
298.07013
298.02713
297.98703
297.94985
297.91558
297.88421
297.85574
297.83014
297.8074
297.78749
297.77042
297.75617
297.74476
297.7362
297.73052
297.72779
297.72811
297.73161
297.73836
297.74835
297.76176
297.77942
297.80218
297.82849
297.85428
297.88148
297.92709
297.99352
291.49848
286.00134
290.45932
289.52414
291.01929
291.49392
292.27262
292.95222
293.65005
294.32911
294.99221
295.63043
296.23749
296.80686
297.3331
297.81195
298.24055
298.61757
298.94306
299.2183
299.44562
299.6281
299.76935
299.87328
299.94392
299.98525
300.0011
299.99507
299.9705
299.9304
299.8775
299.81422
299.7427
299.66479
299.58211
299.49608
299.40789
299.31856
299.22897
299.13986
299.05184
298.96542
298.88103
298.79902
298.71967
298.6432
298.56978
298.49954
298.43258
298.36897
298.30874
298.25191
298.19848
298.14844
298.10177
298.05842
298.01836
297.98154
297.94791
297.91744
297.89006
297.86573
297.84443
297.82611
297.81078
297.79841
297.78901
297.78263
297.77934
297.77923
297.78231
297.78857
297.79833
297.81249
297.83148
297.85303
297.8734
297.89672
297.94051
298.00272
292.0323
287.15096
291.39443
290.83192
292.28703
292.94026
293.80172
294.57931
295.35372
296.09328
296.79549
297.45063
298.05202
298.59416
299.0737
299.48929
299.8415
300.13254
300.3659
300.54599
300.67776
300.76645
300.81729
300.83534
300.82537
300.79177
300.7385
300.66912
300.58677
300.49417
300.39371
300.28743
300.17708
300.06414
299.94989
299.83537
299.72147
299.60894
299.49838
299.39028
299.28505
299.18302
299.08443
298.98947
298.8983
298.811
298.72766
298.64829
298.57292
298.50154
298.43411
298.37059
298.31093
298.25507
298.20294
298.15447
298.10958
298.0682
298.03025
297.99566
297.96436
297.93628
297.91137
297.88958
297.87086
297.85519
297.84256
297.83298
297.82652
297.82319
297.82297
297.82587
297.83235
297.84323
297.85852
297.87565
297.89169
297.91216
297.95368
298.00997
292.75266
288.60344
292.60943
292.45575
293.89349
294.72688
295.68
296.5453
297.37429
298.14057
298.83899
299.46175
300.00522
300.46817
300.85216
301.16084
301.39951
301.5745
301.6927
301.76114
301.78665
301.7757
301.73421
301.66751
301.58031
301.47676
301.36041
301.23435
301.10116
300.96305
300.82189
300.67922
300.53633
300.39428
300.25395
300.11607
299.9812
299.8498
299.72225
299.59883
299.47974
299.36513
299.25513
299.14978
299.04911
298.95313
298.86181
298.77511
298.69296
298.61531
298.54206
298.47312
298.4084
298.3478
298.29121
298.23854
298.18969
298.14454
298.10301
298.065
298.03042
297.99919
297.97124
297.94649
297.92489
297.90639
297.89097
297.87863
297.86938
297.86321
297.86005
297.85998
297.86351
297.87132
297.88298
297.89598
297.9085
297.92701
297.9657
298.01473
293.66507
290.47314
294.18729
294.48518
295.92329
296.92102
297.94443
298.85627
299.68542
300.41407
301.04047
301.5634
301.98633
302.31526
302.55827
302.7246
302.82389
302.86568
302.85897
302.81199
302.73212
302.6258
302.4986
302.35529
302.19988
302.03575
301.86571
301.69208
301.51678
301.34139
301.16718
300.99519
300.82626
300.66105
300.50008
300.34376
300.19239
300.04619
299.90534
299.76991
299.63998
299.51555
299.39661
299.28312
299.17502
299.07222
298.97463
298.88214
298.79464
298.71202
298.63414
298.56088
298.49211
298.42771
298.36753
298.31146
298.25937
298.21115
298.16667
298.12584
298.08853
298.05467
298.02416
297.99692
297.97288
297.95197
297.93416
297.91943
297.90776
297.89909
297.89335
297.89069
297.89158
297.89648
297.90465
297.91381
297.92337
297.94013
297.97535
298.01702
294.88966
292.87981
296.23979
296.99032
298.41041
299.54523
300.56953
301.44261
302.18239
302.78454
303.25761
303.61098
303.85739
304.01044
304.0839
304.09084
304.04318
303.95151
303.82495
303.67129
303.49704
303.30762
303.10746
302.90022
302.68884
302.47572
302.26278
302.05155
301.84325
301.63884
301.43908
301.24454
301.05566
300.87275
300.69605
300.52569
300.36178
300.20434
300.05337
299.90882
299.77063
299.63871
299.51295
299.39322
299.2794
299.17134
299.0689
298.97192
298.88026
298.79374
298.71223
298.63556
298.56357
298.49613
298.43307
298.37426
298.31956
298.26883
298.22194
298.17877
298.13921
298.10316
298.0705
298.04116
298.01504
297.99207
297.97222
297.95543
297.94166
297.93081
297.92284
297.91791
297.91645
297.91862
297.92348
297.92918
297.93613
297.95117
297.98299
298.01804
296.46021
295.92544
298.7906
299.98821
301.46188
302.51781
303.4267
304.13849
304.68148
305.06687
305.31641
305.45029
305.48879
305.45013
305.35038
305.20314
305.01976
304.80955
304.58003
304.33724
304.08598
303.83008
303.57254
303.31571
303.06143
302.81113
302.56589
302.32654
302.09369
301.8678
301.64918
301.43803
301.23447
301.03857
300.8503
300.66964
300.4965
300.33077
300.17232
300.02101
299.87668
299.73917
299.60829
299.48386
299.36572
299.25366
299.1475
299.04707
298.95217
298.86263
298.77827
298.6989
298.62437
298.5545
298.48913
298.42811
298.37128
298.3185
298.26962
298.22453
298.18309
298.14519
298.11072
298.07959
298.05169
298.02697
298.00534
297.98677
297.97116
297.95843
297.94856
297.9417
297.93816
297.93786
297.93978
297.94257
297.94731
297.96021
297.9874
298.01544
298.42675
299.61994
302.25131
303.50816
304.73635
305.61486
306.27479
306.70786
306.96321
307.07034
307.06147
306.96269
306.79607
306.5793
306.32644
306.04848
305.75395
305.44941
305.13987
304.82917
304.5202
304.21515
303.91564
303.62289
303.33776
303.06087
302.79264
302.53334
302.28313
302.04206
301.81011
301.58722
301.37329
301.16817
300.97169
300.78367
300.60391
300.43221
300.26836
300.11212
299.96329
299.82164
299.68696
299.55901
299.43759
299.32248
299.21347
299.11036
299.01293
298.921
298.83437
298.75285
298.67626
298.60442
298.53715
298.47431
298.41571
298.36121
298.31067
298.26395
298.22091
298.18144
298.14541
298.11273
298.08329
298.05702
298.03385
298.0137
297.99648
297.98211
297.97059
297.96205
297.95667
297.95421
297.95377
297.95445
297.9576
297.96821
297.99017
298.01188
301.11174
304.02014
305.98576
307.14073
308.04729
308.55872
308.83287
308.90449
308.8321
308.65372
308.40091
308.0968
307.75877
307.39961
307.02867
306.65279
306.27694
305.90468
305.5386
305.18049
304.83163
304.49287
304.16475
303.8476
303.54158
303.24672
302.96296
302.69018
302.4282
302.1768
301.93576
301.70482
301.48372
301.27219
301.06995
300.87672
300.69224
300.51622
300.34841
300.18853
300.03633
299.89154
299.75392
299.62323
299.49923
299.38168
299.27036
299.16505
299.06553
298.9716
298.88305
298.79968
298.72132
298.64776
298.57885
298.51439
298.45424
298.39822
298.3462
298.29803
298.25356
298.21268
298.17525
298.14118
298.11036
298.0827
298.05813
298.03655
298.01788
298.00204
297.98904
297.97896
297.97185
297.96745
297.96509
297.96436
297.96651
297.97494
297.9915
298.00737
304.84884
308.68336
309.91359
310.59462
310.94236
310.97441
310.82238
310.54082
310.17856
309.766
309.3248
308.86943
308.40977
307.95248
307.50206
307.06146
306.63262
306.21675
305.81454
305.42634
305.05227
304.69224
304.3461
304.01357
303.69434
303.38807
303.09439
302.81293
302.54331
302.28514
302.03806
301.8017
301.5757
301.35972
301.1534
300.95643
300.76847
300.58923
300.4184
300.25568
300.1008
299.95348
299.81345
299.68045
299.55424
299.43458
299.32122
299.21395
299.11254
299.01677
298.92645
298.84137
298.76133
298.68616
298.61567
298.54969
298.48805
298.43058
298.37714
298.32758
298.28176
298.23955
298.20081
298.16544
298.13333
298.10439
298.07852
298.05564
298.03566
298.01851
298.00418
297.99268
297.98398
297.97785
297.9739
297.97202
297.97313
297.97917
297.99083
298.0026
310.41902
312.84015
313.27547
313.23658
313.01332
312.60266
312.10633
311.56252
310.99938
310.43285
309.87277
309.32497
308.79287
308.27837
307.78239
307.30524
306.84685
306.40691
305.98496
305.58045
305.19281
304.82142
304.46567
304.12498
303.79875
303.48642
303.18746
302.90136
302.62761
302.36575
302.11534
301.87594
301.64714
301.42855
301.21981
301.02055
300.83043
300.64911
300.47629
300.31166
300.15493
300.00581
299.86403
299.72932
299.60144
299.48014
299.36517
299.25632
299.15335
299.05606
298.96424
298.87768
298.7962
298.71961
298.64772
298.58036
298.51737
298.45858
298.40384
298.353
298.30592
298.26247
298.22251
298.18594
298.15264
298.12252
298.09547
298.07141
298.05026
298.03194
298.01642
298.00368
297.99363
297.9861
297.98092
297.97811
297.97817
297.98199
297.98974
297.99869
314.02568
315.0189
315.17039
314.66697
314.04516
313.37031
312.68295
312.0036
311.34189
310.70303
310.08913
309.5009
308.93816
308.40027
307.88633
307.39534
306.92626
306.47804
306.04967
305.6402
305.24872
304.87436
304.51633
304.17387
303.84629
303.53292
303.23315
302.94641
302.67215
302.40987
302.15909
301.91935
301.69022
301.4713
301.26221
301.06258
300.87205
300.6903
300.517
300.35184
300.19454
300.0448
299.90237
299.76696
299.63834
299.51625
299.40047
299.29076
299.1869
299.08869
298.99591
298.90837
298.82588
298.74825
298.67531
298.60688
298.5428
298.48291
298.42706
298.3751
298.32689
298.2823
298.24121
298.2035
298.16905
298.13778
298.10958
298.08436
298.06205
298.04258
298.02592
298.01202
298.00079
297.9921
297.98587
297.98218
297.98133
297.98366
297.98906
297.99641
310.57693
308.84303
305.58247
302.7682
301.77907
301.79726
301.45729
301.23949
301.06425
300.91324
300.78291
300.6562
300.54301
300.43913
300.33847
300.2381
300.13919
300.04151
299.94475
299.84874
299.75339
299.65862
299.56441
299.47076
299.37769
299.28524
299.19345
299.10238
299.0121
298.92268
298.8342
298.74673
298.66037
298.57521
298.49133
298.40885
298.32785
298.24845
298.17076
298.09488
298.02094
297.94905
297.87934
297.81192
297.74694
297.68453
297.62481
297.56791
297.51397
297.46312
297.41548
297.37118
297.33033
297.29306
297.25946
297.22965
297.2037
297.18168
297.16364
297.14963
297.13972
297.13396
297.1324
297.13508
297.14215
297.15368
297.16991
297.19061
297.21648
297.24608
297.28292
297.32077
297.37318
297.416
297.49111
297.52569
297.63867
297.65835
297.81076
297.84175
306.75912
304.60855
300.55686
299.33705
299.32496
299.44115
299.60109
299.65331
299.69208
299.72572
299.74859
299.74821
299.73203
299.70296
299.66641
299.62386
299.57594
299.52313
299.46608
299.40538
299.34153
299.27498
299.20611
299.13529
299.06283
298.98904
298.91419
298.83853
298.76232
298.68578
298.60911
298.53254
298.45625
298.38043
298.30525
298.23091
298.15756
298.08537
298.01451
297.94514
297.8774
297.81147
297.74749
297.68562
297.62603
297.56885
297.51425
297.46236
297.41334
297.36732
297.32444
297.28482
297.2486
297.21588
297.18677
297.16138
297.13978
297.12203
297.10816
297.09822
297.09228
297.09037
297.09252
297.0988
297.1093
297.12411
297.14344
297.1671
297.19565
297.22793
297.26692
297.30738
297.36114
297.40659
297.48187
297.51973
297.63213
297.6537
297.8092
297.83549
307.29045
303.16926
300.08938
298.91788
298.94491
299.06043
299.18514
299.20726
299.24088
299.24034
299.24136
299.23083
299.21912
299.20126
299.1792
299.15199
299.1204
299.0846
299.04493
299.0017
298.95516
298.9056
298.85329
298.79851
298.74153
298.6826
298.62198
298.55993
298.49668
298.43249
298.36757
298.30215
298.23646
298.1707
298.10509
298.03983
297.97513
297.91117
297.84816
297.78628
297.72572
297.66666
297.60929
297.5538
297.50035
297.44912
297.40029
297.35401
297.31045
297.26975
297.23206
297.19753
297.16627
297.13841
297.11405
297.0933
297.07623
297.06289
297.05332
297.04755
297.04563
297.04761
297.0535
297.06335
297.07727
297.09533
297.1177
297.14424
297.17544
297.21028
297.25147
297.29428
297.34963
297.39713
297.47331
297.51344
297.62649
297.64912
297.80717
297.83044
306.20685
301.0405
299.07387
298.18679
298.43372
298.49187
298.61748
298.62794
298.67631
298.68952
298.71126
298.71561
298.71748
298.71108
298.70073
298.68556
298.66646
298.64343
298.61679
298.58683
298.55375
298.51778
298.47914
298.43803
298.39464
298.34918
298.30185
298.25284
298.20235
298.15058
298.09775
298.04404
297.98967
297.93484
297.87977
297.82466
297.76972
297.71515
297.66116
297.60796
297.55576
297.50474
297.45513
297.40711
297.36088
297.31664
297.27458
297.23486
297.19766
297.16315
297.13148
297.1028
297.07724
297.05492
297.03595
297.02044
297.00846
297.00005
296.99525
296.99408
296.9966
297.00282
297.01278
297.0265
297.04409
297.06562
297.09124
297.12083
297.15484
297.19234
297.23587
297.28108
297.33815
297.38766
297.46489
297.50717
297.62087
297.6446
297.80519
297.82567
305.18046
299.93063
298.49782
297.77246
298.12831
298.11343
298.24589
298.22822
298.27601
298.27299
298.28799
298.28454
298.28417
298.27729
298.26889
298.25712
298.24291
298.22605
298.20674
298.18507
298.16111
298.13495
298.10666
298.07632
298.04403
298.0099
297.97403
297.93655
297.8976
297.85731
297.81585
297.77336
297.73003
297.68603
297.64153
297.59674
297.55184
297.50704
297.46253
297.41852
297.37522
297.33283
297.29158
297.25166
297.21329
297.17666
297.14198
297.10942
297.07917
297.05141
297.02629
297.00396
296.98457
296.96825
296.95509
296.94521
296.93867
296.93552
296.93578
296.93947
296.94665
296.95733
296.97152
296.98927
297.01066
297.03576
297.06472
297.09743
297.1343
297.17448
297.22041
297.26797
297.32687
297.37824
297.45675
297.50089
297.61556
297.64019
297.80335
297.8212
304.66636
298.85244
297.86165
297.22245
297.67799
297.59904
297.7594
297.72805
297.79141
297.78909
297.81429
297.81648
297.82392
297.82388
297.82296
297.8188
297.81257
297.80398
297.79327
297.78048
297.76572
297.74903
297.73048
297.71014
297.68807
297.66434
297.63903
297.61223
297.58404
297.55455
297.52388
297.49216
297.45952
297.4261
297.39206
297.35757
297.32279
297.28791
297.25312
297.21861
297.18459
297.15126
297.11883
297.0875
297.0575
297.02901
297.00225
296.97739
296.95463
296.93414
296.91608
296.90062
296.88788
296.878
296.87108
296.86723
296.86652
296.86897
296.87461
296.88346
296.89555
296.91092
296.92956
296.95151
296.97685
297.00565
297.03806
297.07397
297.11377
297.15669
297.20506
297.25498
297.31575
297.36899
297.44883
297.49475
297.61043
297.63593
297.80158
297.81699
304.18891
297.70124
297.29341
296.68968
297.22185
297.09475
297.2877
297.24484
297.32444
297.32186
297.35539
297.36172
297.37588
297.38199
297.38793
297.39063
297.39151
297.39027
297.38717
297.38226
297.37564
297.36736
297.35749
297.34607
297.33316
297.31881
297.30307
297.286
297.26767
297.24815
297.22753
297.2059
297.18337
297.16005
297.13607
297.11158
297.08671
297.06163
297.03652
297.01155
296.98692
296.96281
296.93943
296.91697
296.89565
296.87564
296.85716
296.84039
296.8255
296.81268
296.80208
296.79386
296.78815
296.78508
296.78476
296.78727
296.79268
296.80102
296.8123
296.82653
296.84376
296.86399