/*--------------------------------*- C++ -*----------------------------------*\
| =========                 |                                                 |
| \\      /  F ield         | OpenFOAM: The Open Source CFD Toolbox           |
|  \\    /   O peration     | Version:  2512                                  |
|   \\  /    A nd           | Website:  www.openfoam.com                      |
|    \\/     M anipulation  |                                                 |
\*---------------------------------------------------------------------------*/
FoamFile
{
    version     2.0;
    format      ascii;
    arch        "LSB;label=32;scalar=64";
    class       volVectorField;
    location    "0.146";
    object      U;
}
// * * * * * * * * * * * * * * * * * * * * * * * * * * * * * * * * * * * * * //

dimensions      [0 1 -1 0 0 0 0];

internalField   nonuniform List<vector> 
16000
(
(214.8057 -3.1192572e-17 -8.3403247)
(251.94881 0 5.3524975)
(238.34463 0 -7.542582)
(246.05635 4.9553094e-17 3.7598535)
(241.45881 -4.9004418e-17 -5.9341756)
(243.71693 0 1.7341503)
(241.96381 0 -4.3161381)
(242.50363 8.3845016e-17 -0.041914658)
(241.69426 -7.9686462e-17 -3.1581383)
(241.59633 0 -1.2769366)
(241.10285 7.2005739e-17 -2.5698214)
(240.77367 -2.0514344e-16 -1.9923524)
(240.34589 1.2985001e-16 -2.4307135)
(239.93129 -1.2351965e-16 -2.3686263)
(239.48701 1.1719874e-16 -2.5302535)
(239.02756 -3.4766792e-18 -2.6026913)
(238.54829 -3.302755e-18 -2.7067276)
(238.05027 -9.745839e-17 -2.8000384)
(237.53305 1.9094341e-16 -2.8951571)
(236.99658 -9.0595725e-17 -2.9881013)
(236.44077 1.723268e-16 -3.079257)
(235.86561 -1.633513e-16 -3.1679242)
(235.27115 0 -3.2536004)
(234.65752 1.5205539e-16 -3.3356988)
(234.02495 -4.1146213e-18 -3.4136224)
(233.37376 -2.6538304e-16 -3.4867411)
(232.70438 1.2578171e-16 -3.5544167)
(232.01737 0 -3.6159963)
(231.3134 0 -3.670829)
(230.59328 2.1844159e-16 -3.7182704)
(229.85797 -2.0352693e-16 -3.7576962)
(229.10854 0 -3.7885109)
(228.34621 0 -3.8101585)
(227.57234 0 -3.8221372)
(226.7884 5.134887e-18 -3.8240094)
(225.99602 1.5582907e-16 -3.815414)
(225.19691 -1.4264656e-16 -3.7960784)
(224.39287 -1.3971324e-16 -3.7658269)
(223.58581 1.2370583e-16 -3.7245909)
(222.77768 0 -3.6724169)
(221.97048 -1.1839942e-16 -3.6094683)
(221.16622 1.1175481e-16 -3.5360303)
(220.3669 -2.1179932e-16 -3.4525069)
(219.57449 1.9982582e-16 -3.3594185)
(218.7909 -1.9516258e-16 -3.2573952)
(218.01798 3.5731155e-16 -3.1471657)
(217.25744 5.5999517e-18 -3.0295467)
(216.5109 2.9849534e-19 -2.9054277)
(215.77982 -1.5039923e-16 -2.7757548)
(215.06553 1.4224665e-16 -2.6415132)
(214.36917 -1.2564753e-16 -2.5037089)
(213.69173 0 -2.3633496)
(213.03402 7.4680679e-18 -2.2214282)
(212.39665 0 -2.0789041)
(211.78007 6.6457723e-18 -1.9366886)
(211.18452 2.0693599e-16 -1.7956327)
(210.61006 -3.7823155e-16 -1.6565141)
(210.05658 1.0920941e-17 -1.5200272)
(209.52375 1.680776e-16 -1.3867738)
(209.01107 -1.4877525e-16 -1.2572705)
(208.51782 1.4013852e-16 -1.1319261)
(208.04319 -8.8184306e-18 -1.0110894)
(207.58626 0 -0.89501674)
(207.14587 0 -0.78387227)
(206.7206 -1.1113364e-16 -0.67775543)
(206.30869 1.1181373e-16 -0.57669924)
(205.90804 -9.9080247e-17 -0.48068312)
(205.51641 1.9340323e-16 -0.38963795)
(205.13159 -1.8874964e-16 -0.3034488)
(204.7515 8.3677561e-17 -0.22195826)
(204.37395 5.2841806e-18 -0.14497939)
(203.99619 0 -0.072354333)
(203.61491 4.7511159e-18 -0.0039664115)
(203.22717 -4.5130961e-18 0.060467835)
(202.83178 0 0.1212067)
(202.43054 -3.3752063e-17 0.17538612)
(201.99909 6.2472233e-17 0.22337002)
(201.66796 -3.174582e-17 0.3218541)
(200.97978 0 0.15728752)
(200.98592 0 0.75997952)
(216.09649 0 -11.151074)
(253.56281 -3.7085292e-18 3.307601)
(239.27264 -1.19634e-16 -10.464967)
(247.49737 1.1009335e-16 1.6789847)
(242.54854 0 -8.7912612)
(245.03623 1.0139179e-16 -0.42162748)
(243.08038 -1.8739791e-16 -7.058335)
(243.70729 -1.0219616e-19 -2.3215618)
(242.80739 8.4451812e-17 -5.7471376)
(242.70982 0 -3.6748434)
(242.17549 -1.5255511e-16 -5.0456643)
(241.81714 1.4922689e-16 -4.4361194)
(241.35716 1.4193698e-16 -4.8614052)
(240.90795 -2.6129087e-16 -4.8004129)
(240.42892 1.2011952e-16 -4.9424025)
(239.93282 1.1043473e-17 -5.0079181)
(239.41591 1.1548119e-16 -5.0967985)
(238.87894 -1.0284971e-16 -5.1767975)
(238.32162 0 -5.2562726)
(237.74393 0 -5.3325208)
(237.14586 5.6756385e-18 -5.4054219)
(236.52751 -1.7804687e-16 -5.4742656)
(235.88903 3.3761018e-16 -5.5384152)
(235.23069 -3.1547182e-16 -5.5971842)
(234.55284 1.4258972e-16 -5.6498699)
(233.85599 0 -5.6957543)
(233.14075 1.2436488e-16 -5.734109)
(232.40785 -1.3335567e-16 -5.7642097)
(231.65819 0 -5.7853438)
(230.8928 3.5244531e-18 -5.7968215)
(230.11286 -1.3367659e-17 -5.7979872)
(229.31969 0 -5.7882352)
(228.51477 0 -5.7670177)
(227.69969 -1.7057112e-16 -5.7338657)
(226.8762 3.386951e-16 -5.6883972)
(226.04615 -1.6263769e-16 -5.6303323)
(225.21149 -1.5904513e-16 -5.5595064)
(224.37424 1.4556624e-16 -5.4758774)
(223.53651 -1.1212032e-16 -5.3795368)
(222.7004 -2.8731664e-19 -5.2707142)
(221.86804 -2.6876116e-19 -5.1497797)
(221.04156 2.3272198e-16 -5.0172438)
(220.223 -1.0980137e-16 -4.8737522)
(219.41436 0 -4.7200784)
(218.61753 2.0232161e-16 -4.5571131)
(217.83426 1.1936005e-17 -4.3858497)
(217.0662 -5.1148531e-18 -4.2073669)
(216.31479 -1.6449695e-16 -4.0228107)
(215.58135 0 -3.8333733)
(214.86699 -1.4652389e-16 -3.6402719)
(214.17264 -8.8577628e-18 -3.4447282)
(213.49904 2.6006101e-16 -3.2479457)
(212.84676 -1.3006347e-16 -3.0510919)
(212.21616 0 -2.8552794)
(211.60745 -2.0379496e-17 -2.6615495)
(211.02064 -2.1117553e-16 -2.4708611)
(210.45557 3.6122036e-16 -2.2840776)
(209.91189 -2.1524454e-16 -2.1019593)
(209.38913 0 -1.9251549)
(208.8866 -1.7077687e-16 -1.7542098)
(208.40344 1.7946185e-16 -1.5895452)
(207.9387 2.6683097e-17 -1.4314969)
(207.49137 0 -1.2803098)
(207.06022 -1.4187617e-16 -1.1361163)
(206.64381 7.3200602e-18 -0.99897522)
(206.24036 1.1169873e-16 -0.86887287)
(205.84776 -1.9735157e-17 -0.74573614)
(205.46369 9.2993956e-17 -0.62943916)
(205.08585 -1.0511626e-16 -0.51980407)
(204.7121 5.5082289e-18 -0.41660427)
(204.34025 -5.197424e-18 -0.31958427)
(203.9676 0 -0.22852421)
(203.59084 -4.6375611e-18 -0.14322173)
(203.20693 4.3865166e-18 -0.063276674)
(202.81414 8.3079421e-18 0.010988995)
(202.41067 9.8443744e-19 0.076997744)
(202.00118 0 0.14556079)
(201.60516 3.0227899e-17 0.21984457)
(201.05837 -5.7569651e-17 0.12963484)
(200.88342 2.585916e-17 0.65098121)
(217.2511 0 -14.035122)
(255.02505 -1.2197985e-16 1.0665626)
(240.20669 2.496677e-16 -13.474066)
(248.73141 -2.2256333e-16 -0.57529969)
(243.5278 1.1012948e-16 -11.728025)
(246.15071 -3.2579039e-18 -2.7714842)
(244.06756 9.9247334e-17 -9.8521951)
(244.71941 -9.3962881e-17 -4.8002899)
(243.76247 -5.5800175e-18 -8.4039332)
(243.64137 -5.2977438e-18 -6.2402323)
(243.07132 -1.00651e-17 -7.6228379)
(242.67662 1.3886143e-16 -7.0186654)
(242.18081 -1.4076199e-16 -7.4132483)
(241.69273 1.3815357e-16 -7.3593414)
(241.17425 -1.1868389e-16 -7.4802749)
(240.63703 -1.5555614e-17 -7.5379561)
(240.07776 0 -7.611451)
(239.49716 -1.1934691e-20 -7.6768087)
(238.89503 -2.2625991e-16 -7.7393984)
(238.27146 -3.6787514e-19 -7.797192)
(237.62655 1.734228e-16 -7.8497563)
(236.96052 1.7035273e-17 -7.8962998)
(236.27367 -2.1547172e-17 -7.9360679)
(235.56642 0 -7.9682711)
(234.83933 6.6882026e-21 -7.9921106)
(234.09308 -1.6540815e-16 -8.0067809)
(233.32849 1.4777162e-16 -8.0114808)
(232.54655 8.2473116e-18 -8.0054215)
(231.74841 0 -7.9878452)
(230.93536 -7.3989158e-18 -7.9580322)
(230.10887 -2.2218421e-21 -7.9153216)
(229.27057 -1.9917332e-16 -7.859124)
(228.42221 2.0059045e-16 -7.7889376)
(227.56571 1.188751e-17 -7.7043679)
(226.70309 -1.7994259e-16 -7.6051372)
(225.83649 1.4850453e-16 -7.4911034)
(224.96812 -1.8095665e-16 -7.3622692)
(224.10024 1.5167185e-16 -7.218793)
(223.23514 -1.436107e-16 -7.0609919)
(222.3751 1.353463e-16 -6.889348)
(221.52237 1.6004056e-17 -6.7045051)
(220.67911 0 -6.5072618)
(219.84741 1.9963249e-16 -6.2985639)
(219.02923 -2.4163565e-16 -6.0794894)
(218.22636 0 -5.8512317)
(217.44044 1.7934399e-16 -5.6150813)
(216.67291 -1.5737763e-16 -5.3724006)
(215.92504 1.6980614e-16 -5.1246026)
(215.19786 -1.7960983e-16 -4.8731247)
(214.49222 0 -4.6194056)
(213.80876 1.771132e-16 -4.3648617)
(213.14791 -1.3310692e-16 -4.1108633)
(212.50992 0 -3.8587162)
(211.89488 0 -3.6096442)
(211.30266 1.2472004e-16 -3.3647727)
(210.73302 -2.0829147e-16 -3.1251201)
(210.18552 1.2227189e-16 -2.8915864)
(209.65959 1.8401663e-16 -2.6649488)
(209.15451 1.9895183e-19 -2.4458553)
(208.66945 1.7703714e-19 -2.2348335)
(208.20336 -3.2390656e-16 -2.03228)
(207.75517 8.9391426e-17 -1.8384809)
(207.32374 0 -1.6536367)
(206.90778 1.4207773e-16 -1.4778239)
(206.50581 -1.6297775e-16 -1.3110366)
(206.11604 1.1139649e-16 -1.1531944)
(205.73635 1.3148674e-17 -1.0041543)
(205.36439 -8.5958027e-17 -0.86372192)
(204.99783 1.1543254e-17 -0.73165295)
(204.63445 2.1708459e-17 -0.60765632)
(204.27209 -1.0208794e-16 -0.49140932)
(203.90816 9.6013628e-17 -0.38260994)
(203.53939 -7.234327e-17 -0.28097221)
(203.16259 1.3627242e-16 -0.1861829)
(202.77553 -5.6193949e-17 -0.098830938)
(202.37801 -6.0630853e-17 -0.019469042)
(201.9766 5.0094893e-17 0.061558012)
(201.55817 0 0.12516176)
(201.07482 3.2058712e-18 0.10027491)
(200.81626 -1.2158609e-17 0.53661002)
(218.23947 0 -16.987933)
(256.3316 0 -1.3074632)
(240.9444 0 -16.613678)
(249.76495 1.0635905e-16 -2.9348965)
(244.31554 -1.237353e-16 -14.793806)
(247.09221 -2.2016258e-16 -5.2392504)
(244.86767 2.0956933e-16 -12.764078)
(245.54742 -1.2408694e-17 -7.4062054)
(244.52614 5.910362e-18 -11.171268)
(244.37781 -1.73794e-16 -8.9371115)
(243.76775 1.7016125e-16 -10.311373)
(243.33144 1.0112587e-17 -9.726655)
(242.79521 -1.5357107e-16 -10.082432)
(242.26322 1.3642336e-16 -10.037139)
(241.70047 -1.318892e-20 -10.13559)
(241.1173 -8.1828395e-18 -10.183344)
(240.51097 0 -10.2397)
(239.88215 -7.3861354e-18 -10.287837)
(239.23077 -2.1025927e-16 -10.330786)
(238.55702 2.1230383e-16 -10.366981)
(237.86114 1.2601834e-17 -10.395763)
(237.14347 -1.1947673e-17 -10.416255)
(236.40451 2.1530615e-16 -10.427602)
(235.64485 -1.7150094e-16 -10.428917)
(234.86527 1.0170232e-17 -10.419303)
(234.0667 1.9285026e-16 -10.397873)
(233.25025 -1.2756856e-16 -10.363751)
(232.41718 0 -10.316098)
(231.56896 1.4740732e-16 -10.254119)
(230.70723 -1.2372868e-16 -10.177092)
(229.83379 2.4936266e-16 -10.084375)
(228.95062 -1.3315929e-17 -9.9754368)
(228.05984 -2.0945743e-16 -9.8498666)
(227.1637 1.7373147e-16 -9.7073975)
(226.26455 -1.8714942e-16 -9.5479181)
(225.36481 -3.1538317e-20 -9.3714891)
(224.46697 2.0922114e-16 -9.178351)
(223.5735 -3.1574826e-16 -8.9689302)
(222.68686 9.2928886e-17 -8.7438414)
(221.80946 3.5185467e-17 -8.5038838)
(220.94359 -4.9752548e-17 -8.2500352)
(220.09143 0 -7.9834366)
(219.25499 -8.8529927e-17 -7.7053777)
(218.43611 1.3865159e-16 -7.4172741)
(217.63641 -2.0935654e-16 -7.1206448)
(216.8573 1.9671081e-16 -6.8170873)
(216.09996 -2.086449e-16 -6.5082466)
(215.36532 3.923266e-16 -6.1957899)
(214.6541 -3.0745864e-16 -5.8813783)
(213.9668 3.0831432e-16 -5.56664)
(213.30368 -1.4471175e-16 -5.2531465)
(212.66482 1.3622288e-16 -4.9423911)
(212.0501 -9.5762009e-17 -4.6357686)
(211.45926 3.0029308e-17 -4.334563)
(210.89186 0 -4.0399317)
(210.34733 0 -3.7529008)
(209.82497 0 -3.4743577)
(209.32397 2.324517e-17 -3.2050492)
(208.84339 0 -2.9455792)
(208.38221 -1.6361047e-16 -2.6964189)
(207.93924 1.9153302e-16 -2.4579049)
(207.51327 -1.0780724e-16 -2.2302474)
(207.10307 -1.1726142e-19 -2.0135724)
(206.70728 2.522267e-16 -1.8078822)
(206.3244 2.9624371e-17 -1.6130905)
(205.95265 -1.3834237e-16 -1.4290376)
(205.58994 5.1880646e-17 -1.255502)
(205.23391 -1.4575125e-16 -1.0922139)
(204.88217 -4.5543277e-17 -0.9388608)
(204.53248 -6.4021275e-17 -0.79508887)
(204.18269 -6.003699e-17 -0.66050495)
(203.83035 5.6262304e-17 -0.53472384)
(203.47228 0 -0.41742893)
(203.10504 0 -0.30843034)
(202.7264 -1.5508789e-17 -0.20809267)
(202.33759 0 -0.11560527)
(201.94157 6.8511397e-18 -0.025971497)
(201.52041 5.1592591e-17 0.038393073)
(201.07883 -7.2873079e-17 0.06302157)
(200.75942 -1.4169453e-20 0.41921783)
(219.04281 0 -20.137733)
(257.46166 -8.7767368e-18 -3.754216)
(241.5387 2.6640258e-16 -19.885409)
(250.60627 -2.4838135e-16 -5.4191686)
(244.86638 2.539617e-16 -17.972327)
(247.8267 -2.3212338e-16 -7.8594428)
(245.46387 -2.2145674e-16 -15.780384)
(246.16103 2.0956574e-16 -10.169169)
(245.07703 0 -14.040796)
(244.89182 0 -11.78296)
(244.23982 1.7966673e-16 -13.113216)
(243.75541 -1.7021119e-16 -12.566275)
(243.17429 -1.0111879e-17 -12.873375)
(242.5935 2.8763242e-17 -12.835861)
(241.98178 -9.1022769e-18 -12.909683)
(241.34803 3.4524279e-17 -12.943755)
(240.69004 0 -12.980071)
(240.00842 0 -13.007332)
(239.30323 -2.3578619e-16 -13.026955)
(238.57477 2.0910825e-16 -13.037591)
(237.82343 0 -13.038389)
(237.04976 0 -13.028354)
(236.25446 -1.9026484e-16 -13.006488)
(235.4384 3.6007351e-16 -12.971783)
(234.60266 -1.703019e-16 -12.923231)
(233.74849 -2.0175215e-17 -12.859847)
(232.87736 -3.8213119e-17 -12.78069)
(231.99093 -1.4479588e-16 -12.684878)
(231.09105 1.195499e-16 -12.571616)
(230.1798 0 -12.44021)
(229.25938 -3.0620594e-17 -12.290096)
(228.3322 0 -12.120862)
(227.40077 0 -11.93226)
(226.46772 2.0670658e-16 -11.724233)
(225.53574 -2.1909138e-16 -11.496922)
(224.60755 2.2982118e-17 -11.25068)
(223.68588 -2.1685109e-17 -10.986074)
(222.77338 -4.1000299e-17 -10.70389)
(221.87262 -8.8454887e-20 -10.405123)
(220.98606 8.3940049e-20 -10.090964)
(220.11595 -7.9142284e-20 -9.7627916)
(219.26438 0 -9.422141)
(218.43319 -1.2171225e-16 -9.0706866)
(217.62396 1.1429348e-16 -8.710207)
(216.83805 0 -8.3425564)
(216.0765 -5.0660954e-17 -7.9696358)
(215.34012 1.9040614e-16 -7.5933544)
(214.62946 -2.2321073e-16 -7.2156038)
(213.94478 -2.1000446e-16 -6.8382268)
(213.28616 1.5744953e-16 -6.4629916)
(212.65344 1.1104912e-16 -6.0915684)
(212.04627 -1.3861608e-16 -5.7255119)
(211.46414 -3.249843e-17 -5.3662427)
(210.90641 -2.1350306e-16 -5.0150405)
(210.37229 1.1419062e-16 -4.6730319)
(209.8609 -1.071009e-16 -4.3411901)
(209.37128 1.0017786e-16 -4.0203333)
(208.90236 2.347235e-16 -3.7111249)
(208.45301 -1.7555496e-16 -3.414078)
(208.02203 0 -3.1295663)
(207.60811 -3.8418155e-17 -2.8578263)
(207.20992 -7.191485e-17 -2.5989666)
(206.82614 1.3437872e-16 -2.3530101)
(206.45538 1.2572707e-16 -2.1198654)
(206.09613 -2.34957e-16 -1.8993496)
(205.74664 8.2289617e-17 -1.6912115)
(205.40486 5.1297923e-17 -1.4951415)
(205.06848 9.5904534e-17 -1.3107892)
(204.73506 1.3445354e-16 -1.1377732)
(204.40236 2.4544381e-20 -0.97567671)
(204.06827 0 -0.82403249)
(203.73046 0 -0.68238788)
(203.38585 -3.4220485e-17 -0.55044213)
(203.0309 9.6015536e-17 -0.42802565)
(202.66369 -8.9802845e-17 -0.31504929)
(202.28581 -8.4066473e-17 -0.21059648)
(201.89667 5.2460001e-17 -0.11363709)
(201.48228 0 -0.042528717)
(201.06616 4.6077479e-17 0.016947949)
(200.70977 2.5152636e-20 0.30364837)
(219.64631 0 -23.457539)
(258.3937 1.8300427e-20 -6.277807)
(241.93867 9.0646647e-18 -23.25468)
(251.27542 2.8766136e-16 -8.0396876)
(245.25712 3.3338671e-19 -21.251315)
(248.32932 -5.0509195e-16 -10.626621)
(245.81484 -3.24025e-19 -18.889388)
(246.53571 4.5577471e-16 -13.091688)
(245.38518 -2.0976698e-16 -17.008865)
(245.15949 -1.2442349e-17 -14.775737)
(244.46467 1.1817763e-17 -16.025783)
(243.92726 -1.7945554e-16 -15.529228)
(243.29758 1.9119509e-16 -15.779705)
(242.66369 -1.8167071e-16 -15.746155)
(241.99851 3.0603478e-16 -15.793311)
(241.3094 -3.0834516e-16 -15.809546)
(240.59472 1.3742777e-16 -15.822744)
(239.85506 0 -15.825438)
(239.09069 0 -15.817886)
(238.30211 1.4638934e-17 -15.798733)
(237.48997 -2.7759329e-17 -15.766897)
(236.65512 0 -15.72121)
(235.79859 1.9933636e-16 -15.660507)
(234.92165 4.7435024e-19 -15.583646)
(234.02576 -3.5674426e-16 -15.48951)
(233.11263 1.6856245e-16 -15.377042)
(232.18419 1.9943676e-17 -15.245269)
(231.24259 0 -15.093317)
(230.29019 -1.7866983e-16 -14.920449)
(229.32955 1.3472467e-16 -14.726081)
(228.36338 -2.2341797e-16 -14.509811)
(227.39454 2.1028516e-16 -14.271443)
(226.42598 -2.2759366e-16 -14.010996)
(225.4607 2.142266e-16 -13.728735)
(224.50172 7.5944941e-17 -13.425165)
(223.55203 0 -13.101039)
(222.61451 0 -12.757364)
(221.69194 4.2326139e-17 -12.395379)
(220.78689 3.9866186e-17 -12.016544)
(219.90172 -3.7533702e-17 -11.622519)
(219.03854 3.532288e-17 -11.215138)
(218.19919 6.6648429e-17 -10.79637)
(217.38519 -6.2595078e-17 -10.368292)
(216.59776 3.5293376e-16 -9.9330499)
(215.8378 -2.760815e-16 -9.4928179)
(215.10592 5.1816991e-17 -9.0497674)
(214.40241 -4.8760566e-17 -8.6060274)
(213.7273 0 -8.1636563)
(213.08039 2.1431385e-16 -7.7246118)
(212.46122 -1.6052771e-16 -7.29073)
(211.86917 0 -6.863703)
(211.30343 0 -6.4450693)
(210.76308 1.3209384e-16 -6.0361994)
(210.2471 -6.1742592e-17 -5.6382942)
(209.75436 0 -5.2523808)
(209.28368 -1.6222956e-16 -4.8793158)
(208.83384 1.0098559e-16 -4.5197896)
(208.40357 1.4174936e-16 -4.1743317)
(207.99155 -1.763264e-16 -3.8433185)
(207.59645 1.6481613e-16 -3.5269885)
(207.21685 -1.5374068e-16 -3.2254454)
(206.85135 6.7128694e-20 -2.9386699)
(206.49857 0 -2.666561)
(206.15711 6.2493867e-17 -2.4089162)
(205.82547 -2.9137774e-16 -2.1654451)
(205.50196 1.6296245e-16 -1.935796)
(205.18461 0 -1.7195662)
(204.87114 -1.4169594e-16 -1.5163224)
(204.55916 8.8020654e-17 -1.3256143)
(204.2464 1.2314103e-16 -1.1469595)
(203.9308 3.4588422e-20 -0.97981905)
(203.61017 -7.1273336e-17 -0.82370374)
(203.28154 9.9681369e-17 -0.67834174)
(202.94146 -1.5485385e-16 -0.54343739)
(202.5883 8.6612716e-17 -0.418478)
(202.22316 2.6907462e-17 -0.30335763)
(201.84347 5.0225079e-17 -0.19939519)
(201.44164 0 -0.11681574)
(201.04565 -4.3746539e-17 -0.036232449)
(200.66111 2.0378222e-17 0.19131047)
(220.03951 0 -26.943791)
(259.12236 9.7660752e-18 -8.9089089)
(242.14208 -3.0560321e-16 -26.750153)
(251.76188 2.4907406e-16 -10.800918)
(245.45807 2.5633757e-16 -24.630095)
(248.58966 -4.9951919e-16 -13.547073)
(245.97398 2.2994477e-16 -22.08101)
(246.6626 2.327301e-16 -16.174285)
(245.46761 -2.2062533e-16 -20.060045)
(245.17382 3.9269568e-17 -17.901625)
(244.43399 0 -19.03701)
(243.83757 0 -18.600715)
(243.1538 -2.2336743e-17 -18.79155)
(242.46039 -1.6959362e-16 -18.758355)
(241.73483 1.4035261e-16 -18.778576)
(240.98317 1.904072e-17 -18.773782)
(240.2044 -3.6094132e-17 -18.761115)
(239.39928 3.0794631e-16 -18.735501)
(238.5684 -2.2629465e-16 -18.696392)
(237.71259 2.4562651e-16 -18.642318)
(236.83288 -2.0297675e-16 -18.571987)
(235.93055 2.7521746e-17 -18.484069)
(235.00709 1.5635413e-16 -18.377263)
(234.06426 -1.9665088e-16 -18.250328)
(233.10407 0 -18.102087)
(232.12879 0 -17.931472)
(231.14093 0 -17.737548)
(230.14324 -1.9696723e-16 -17.519543)
(229.13865 1.8553821e-16 -17.276878)
(228.1303 -3.5159115e-17 -17.009191)
(227.12142 0 -16.716369)
(226.11537 -2.8184459e-16 -16.398565)
(225.11552 2.3555573e-16 -16.056206)
(224.12522 -5.571915e-17 -15.69001)
(223.14775 1.5757189e-16 -15.300986)
(222.18625 -4.89633e-17 -14.890416)
(221.24369 -1.8572874e-16 -14.459855)
(220.32277 2.1910976e-16 -14.011094)
(219.42592 -1.6449294e-16 -13.546139)
(218.55527 7.7596213e-17 -13.067175)
(217.71258 -7.2807193e-17 -12.576525)
(216.89925 1.3687413e-16 -12.076604)
(216.11632 -6.4132508e-17 -11.569882)
(215.36447 -2.4138824e-16 -11.058838)
(214.64403 5.0900506e-16 -10.545917)
(213.95499 -2.1199851e-16 -10.033493)
(213.29706 -1.4939788e-16 -9.5238354)
(212.66968 9.2884331e-17 -9.0190817)
(212.07205 8.7378856e-17 -8.5212122)
(211.5032 -1.6346178e-16 -8.0320341)
(210.962 1.5272928e-16 -7.5531688)
(210.44718 0 -7.0860467)
(209.95742 1.3368526e-16 -6.6319033)
(209.49133 -1.8725457e-16 -6.1917824)
(209.04748 5.8355807e-17 -5.7665404)
(208.62444 5.4385013e-17 -5.3568546)
(208.22075 0 -4.9632332)
(207.83499 0 -4.5860249)
(207.4657 0 -4.2254303)
(207.11144 0 -3.8815202)
(206.77077 0 -3.5542395)
(206.44221 -7.1460882e-17 -3.2434213)
(206.12439 0 -2.9488258)
(205.81591 -5.4523705e-20 -2.6701278)
(205.5153 2.3076683e-16 -2.4069224)
(205.22097 -2.1467759e-16 -2.1587532)
(204.93105 -9.9936104e-17 -1.9251224)
(204.64336 -1.8581925e-16 -1.7055152)
(204.35555 2.5902125e-16 -1.4994123)
(204.06535 4.4101712e-20 -1.3062639)
(203.77076 7.4605898e-17 -1.1254708)
(203.46972 0 -0.95654029)
(203.1594 0 -0.79920249)
(202.83661 0 -0.65290412)
(202.4999 -1.1136567e-16 -0.51692818)
(202.14927 0 -0.39252693)
(201.78151 -9.6222366e-17 -0.2814919)
(201.39627 1.3414985e-16 -0.18374097)
(201.01793 8.3158825e-17 -0.086506442)
(200.61227 -1.9278081e-17 0.083449153)
(220.22615 0 -30.605883)
(259.6539 0 -11.648308)
(242.1536 3.2151837e-16 -30.377441)
(252.06821 1.9255291e-17 -13.719537)
(245.46955 -2.6907194e-16 -28.119495)
(248.69648 0 -16.642514)
(245.9162 1.6119728e-17 -25.347902)
(246.66521 -3.0548443e-17 -19.407721)
(245.28694 0 -23.175602)
(244.9331 1.9260667e-16 -21.147707)
(244.141 -4.1702114e-16 -22.147039)
(243.47441 1.974706e-16 -21.778997)
(242.72626 2.3440185e-17 -21.912119)
(241.96305 0 -21.87469)
(241.1669 2.1032234e-17 -21.866961)
(240.34272 -3.392853e-16 -21.83661)
(239.49018 7.4794463e-17 -21.793377)
(238.61029 2.500442e-16 -21.733611)
(237.70405 2.3747049e-16 -21.656267)
(236.77274 -2.5613978e-16 -21.559753)
(235.8179 0 -21.442601)
(234.84132 -2.8741079e-16 -21.303361)
(233.84513 2.4402577e-16 -21.140637)
(232.83172 -2.0569039e-16 -20.953147)
(231.80376 1.9386395e-16 -20.739734)
(230.76421 -1.8372965e-16 -20.499406)
(229.71629 3.4659659e-16 -20.231384)
(228.66342 -1.6356301e-16 -19.935119)
(227.60921 1.5469135e-16 -19.610337)
(226.55738 -2.9164446e-16 -19.257059)
(225.51173 1.3726349e-16 -18.875625)
(224.47605 1.2963862e-16 -18.466707)
(223.45409 -2.4459986e-16 -18.031309)
(222.44945 5.6779652e-17 -17.570764)
(221.46552 -5.7715317e-19 -17.086731)
(220.50544 2.5448044e-16 -16.581148)
(219.57205 0 -16.056224)
(218.6678 1.9770784e-19 -15.514387)
(217.79475 0 -14.95824)
(216.95454 -7.9436954e-17 -14.390514)
(216.14836 -1.4929129e-16 -13.814017)
(215.377 7.0100554e-17 -13.231578)
(214.6408 0 -12.646001)
(213.93973 -6.1774936e-17 -12.060018)
(213.27339 2.8913721e-16 -11.476247)
(212.64108 -3.2461741e-16 -10.897158)
(212.04182 -3.0416634e-16 -10.325044)
(211.47439 2.8399838e-16 -9.7620036)
(210.93741 -1.7723714e-16 -9.2099196)
(210.42936 0 -8.6704586)
(209.94861 0 -8.1450649)
(209.4935 7.2341238e-17 -7.634964)
(209.06232 6.751265e-17 -7.1411696)
(208.65337 1.2582134e-16 -6.6644923)
(208.26498 -5.8673585e-17 -6.2055522)
(207.89552 -1.0929688e-16 -5.7647921)
(207.54338 -2.0382038e-16 -5.3424921)
(207.207 -9.5088421e-17 -4.9387831)
(206.88489 1.7654359e-16 -4.5536607)
(206.57554 0 -4.1870057)
(206.2775 -7.6470714e-17 -3.8385866)
(205.98931 -1.4214605e-16 -3.5080779)
(205.70961 1.3207077e-16 -3.1950946)
(205.43703 6.1259264e-17 -2.8991831)
(205.1702 5.6977193e-17 -2.6198234)
(204.90763 0 -2.356455)
(204.64757 1.9643762e-16 -2.1084881)
(204.38797 1.8228172e-16 -1.8753302)
(204.12657 -2.5365681e-16 -1.6563933)
(203.86113 7.8450121e-17 -1.4510603)
(203.5897 -7.2720673e-17 -1.258693)
(203.3103 -4.5422686e-20 -1.0788214)
(203.02033 2.4995407e-16 -0.91111356)
(202.71702 -2.316622e-16 -0.7546807)
(202.39885 5.3633988e-17 -0.60893713)
(202.06432 1.4919512e-16 -0.47668569)
(201.71094 -4.6088638e-17 -0.35838686)
(201.34558 -4.269404e-17 -0.24480441)
(200.98399 0 -0.13844659)
(200.56168 3.6578066e-17 -0.019315262)
(220.21339 3.8888521e-16 -34.453027)
(259.98974 5.4130482e-19 -14.503331)
(241.94399 -3.5836258e-16 -34.150443)
(252.18491 0 -16.797946)
(245.20935 0 -31.680326)
(248.42466 -2.6715171e-16 -19.906869)
(245.55771 2.7046774e-16 -28.672122)
(246.12433 6.4127436e-17 -22.805816)
(244.8539 -2.4346793e-16 -26.396702)
(244.40825 2.302819e-16 -24.542681)
(243.5536 -2.4614088e-16 -25.383509)
(242.8042 2.0688533e-16 -25.078885)
(241.97975 -4.9082615e-17 -25.153275)
(241.13519 -4.654758e-17 -25.101764)
(240.25704 -1.7638207e-16 -25.060885)
(239.34933 1.6659688e-16 -24.997109)
(238.41241 -3.5578416e-16 -24.915282)
(237.4477 5.9805766e-16 -24.81244)
(236.45673 -2.8257486e-16 -24.687131)
(235.4414 -2.681258e-16 -24.537606)
(234.40389 2.5284252e-16 -24.362241)
(233.34675 -3.0116332e-17 -24.159494)
(232.27285 -2.2666562e-16 -23.927945)
(231.1854 2.135174e-16 -23.66636)
(230.08791 2.5294724e-16 -23.373714)
(228.98415 -1.4262129e-16 -23.049241)
(227.87815 0 -22.692479)
(226.77409 2.5508037e-16 -22.303292)
(225.67627 -3.203895e-16 -21.881914)
(224.58899 1.1272405e-16 -21.428953)
(223.51656 -2.850293e-16 -20.945414)
(222.46311 2.0081756e-16 -20.43269)
(221.43259 -6.3281651e-17 -19.892551)
(220.42866 2.378005e-16 -19.327117)
(219.45462 -2.2306155e-16 -18.738835)
(218.51333 -2.1023846e-16 -18.130416)
(217.60723 1.9705256e-16 -17.5048)
(216.73822 -4.6215958e-17 -16.86509)
(215.90771 0 -16.214488)
(215.11656 8.1793884e-17 -15.556239)
(214.36518 -7.633794e-17 -14.893566)
(213.65348 0 -14.229616)
(212.98094 1.3443009e-16 -13.567406)
(212.34666 -6.2888119e-17 -12.909784)
(211.74944 -1.7632621e-16 -12.259395)
(211.18778 5.5002861e-16 -11.618652)
(210.65998 -2.0594737e-16 -10.989725)
(210.16419 9.6053099e-17 -10.374526)
(209.69844 -2.6934495e-16 -9.7747113)
(209.26071 -1.8171736e-19 -9.1916849)
(208.84897 1.5617551e-16 -8.6266068)
(208.46117 -1.4569563e-16 -8.080405)
(208.09534 -6.7804547e-17 -7.553792)
(207.74955 -6.316054e-17 -7.0472807)
(207.42195 -1.179374e-16 -6.5612017)
(207.11079 2.1902517e-16 -6.0957221)
(206.81438 0 -5.6508621)
(206.53114 9.4653781e-17 -5.2265109)
(206.25954 -3.5221845e-16 -4.8224434)
(205.99812 2.4514043e-16 -4.4383397)
(205.74543 7.5866522e-17 -4.0737857)
(205.50009 1.4094289e-16 -3.7282955)
(205.26079 1.3095851e-16 -3.4013412)
(205.02626 -1.2117413e-16 -3.0923425)
(204.7952 -1.1229311e-16 -2.8006698)
(204.56626 -3.1238296e-16 -2.5256642)
(204.33786 -4.0936422e-20 -2.2666521)
(204.1081 -8.9278526e-17 -2.0229684)
(203.87484 0 -1.7939571)
(203.6359 -2.2952319e-16 -1.5789403)
(203.38935 7.0776544e-17 -1.377268)
(203.13327 0 -1.1885002)
(202.86538 1.2109678e-16 -1.0121557)
(202.58345 0 -0.8470143)
(202.28553 1.0346085e-16 -0.69299926)
(201.96855 -1.4337832e-16 -0.55428231)
(201.63197 1.3249989e-16 -0.42833499)
(201.28926 -8.1604181e-17 -0.29867192)
(200.94365 7.5367516e-17 -0.1887748)
(200.50892 0 -0.11641333)
(219.98443 -4.0854521e-16 -38.492071)
(260.11435 3.6168621e-16 -17.490711)
(241.47819 -3.3246381e-16 -38.094612)
(252.02666 3.3001584e-16 -20.048161)
(244.66181 3.16608e-16 -35.305618)
(247.93773 -1.7975977e-17 -23.363459)
(244.96995 -2.834293e-16 -32.084699)
(245.46945 -2.6898606e-16 -26.396231)
(244.1061 2.8637902e-16 -29.735745)
(243.55543 0 -28.082611)
(242.62785 2.8575296e-17 -28.749868)
(241.78322 0 -28.497113)
(240.86989 -1.2853788e-16 -28.512477)
(239.93173 2.426988e-16 -28.435471)
(238.95936 0 -28.353831)
(237.95635 0 -28.246497)
(236.92386 0 -28.115242)
(235.86394 3.9092726e-17 -27.957363)
(234.77887 0 -27.771092)
(233.67137 -2.4449066e-16 -27.554555)
(232.54454 3.2941513e-16 -27.306036)
(231.40186 1.2464733e-16 -27.024009)
(230.2472 1.767447e-16 -26.707152)
(229.08475 -2.7762354e-16 -26.354446)
(227.91902 -5.2313847e-17 -25.965195)
(226.75473 -2.4759366e-16 -25.539081)
(225.59676 1.8634632e-16 -25.076199)
(224.45008 -2.201017e-16 -24.577094)
(223.31962 8.2342985e-17 -24.042759)
(222.21019 7.7855191e-17 -23.474655)
(221.1264 0 -22.874697)
(220.07253 2.770058e-16 -22.245217)
(219.05246 -2.6017471e-16 -21.588946)
(218.06957 0 -20.908946)
(217.12672 -2.3001397e-16 -20.20856)
(216.22613 2.1544528e-16 -19.49134)
(215.36946 -1.0153799e-16 -18.760966)
(214.55771 1.9009728e-16 -18.021182)
(213.79129 -2.6711289e-16 -17.27571)
(213.07005 1.2761992e-19 -16.528184)
(212.3933 -1.5607355e-16 -15.782094)
(211.75993 -7.304124e-17 -15.040723)
(211.1684 -1.3709369e-16 -14.307116)
(210.61689 2.5558045e-16 -13.584043)
(210.10332 -1.1926715e-16 -12.873982)
(209.6254 0 -12.179109)
(209.18078 -3.830342e-19 -11.501297)
(208.767 9.7032958e-17 -10.842127)
(208.38162 0 -10.202891)
(208.0222 8.4402767e-17 -9.5846174)
(207.68639 7.8920062e-17 -8.9880878)
(207.37191 -7.3281117e-17 -8.4138565)
(207.07659 2.7283334e-16 -7.8622746)
(206.7984 -2.5364237e-16 -7.3335112)
(206.5354 -1.1796743e-16 -6.8275745)
(206.28581 -1.095933e-16 -6.3443328)
(206.04795 1.0176388e-16 -5.8835324)
(205.82027 1.8877501e-16 -5.4448141)
(205.60129 -3.5017774e-16 -5.0277302)
(205.38963 4.0584084e-16 -4.631763)
(205.18394 -1.5038065e-16 -4.2563209)
(204.98294 1.393939e-16 -3.900766)
(204.78542 -1.2903898e-16 -3.5644378)
(204.5902 2.3898794e-16 -3.2466384)
(204.39612 -3.3177005e-16 -2.9466393)
(204.20197 2.0452372e-16 -2.6636952)
(204.00634 -7.9628517e-20 -2.3970599)
(203.80754 8.7425223e-17 -2.1460026)
(203.60357 0 -1.9098012)
(203.39235 0 -1.6877295)
(203.17193 0 -1.4791556)
(202.94045 -1.2706595e-16 -1.2836492)
(202.69604 1.3877775e-20 -1.1004925)
(202.43698 0 -0.92824072)
(202.16065 0 -0.76766789)
(201.86249 9.1907292e-17 -0.62376615)
(201.54493 -1.693687e-16 -0.4897713)
(201.2267 0 -0.34474021)
(200.8965 0 -0.23533238)
(200.45423 -1.3194345e-16 -0.20623011)
(219.50444 2.7579615e-17 -42.731083)
(259.98748 -7.8312655e-16 -20.628539)
(240.72776 3.4781896e-16 -42.177684)
(251.33415 -2.1693344e-17 -23.481771)
(243.80442 3.7316795e-16 -39.052685)
(247.1083 -3.5161508e-16 -27.044007)
(244.05108 0 -35.60989)
(244.42215 -3.1686857e-16 -30.174859)
(243.00801 2.3298392e-16 -33.187864)
(242.33207 2.2128869e-16 -31.761358)
(241.31802 -2.3887488e-16 -32.249206)
(240.36387 0 -32.029736)
(239.34699 1.9638976e-19 -31.984034)
(238.30137 0 -31.867799)
(237.22127 3.8481722e-16 -31.734135)
(236.11029 -7.2695763e-16 -31.569674)
(234.97057 3.4320129e-16 -31.374321)
(233.80507 -4.0540162e-17 -31.145436)
(232.61713 -3.8528225e-17 -30.881038)
(231.41059 3.6623918e-17 -30.579212)
(230.18971 -6.8373029e-17 -30.238308)
(228.9592 -3.2392383e-16 -29.856976)
(227.72414 3.0486501e-16 -29.434242)
(226.4899 5.7469339e-17 -28.969565)
(225.26208 -2.7238286e-16 -28.462871)
(224.0464 -7.0268272e-19 -27.914619)
(222.84861 2.8929003e-16 -27.325796)
(221.67434 -1.8157651e-16 -26.697946)
(220.52898 -6.2443751e-19 -26.033152)
(219.4176 0 -25.334018)
(218.34477 0 -24.603622)