/*--------------------------------*- C++ -*----------------------------------*\
| =========                 |                                                 |
| \\      /  F ield         | OpenFOAM: The Open Source CFD Toolbox           |
|  \\    /   O peration     | Version:  2512                                  |
|   \\  /    A nd           | Website:  www.openfoam.com                      |
|    \\/     M anipulation  |                                                 |
\*---------------------------------------------------------------------------*/
FoamFile
{
    version     2.0;
    format      ascii;
    arch        "LSB;label=32;scalar=64";
    class       volScalarField;
    location    "0.149";
    object      alphat;
}
// * * * * * * * * * * * * * * * * * * * * * * * * * * * * * * * * * * * * * //

dimensions      [1 -1 -1 0 0 0 0];

internalField   nonuniform List<scalar> 
16000
(
6.1389296e-07
1.2045407e-05
2.0234417e-05
2.5340503e-05
2.0080908e-05
2.7277163e-05
1.937952e-05
2.6665841e-05
2.0747967e-05
2.8837221e-05
2.4141637e-05
2.8490153e-05
2.588316e-05
2.6583864e-05
2.5654723e-05
2.5502371e-05
2.5227427e-05
2.5152843e-05
2.516621e-05
2.5289815e-05
2.5515474e-05
2.5841904e-05
2.6266411e-05
2.6789121e-05
2.7412311e-05
2.8142592e-05
2.8988799e-05
2.996508e-05
3.1088699e-05
3.2378303e-05
3.3854383e-05
3.5544169e-05
3.7482821e-05
3.971369e-05
4.2290166e-05
4.5276011e-05
4.874727e-05
5.2794704e-05
5.7530739e-05
6.3094809e-05
6.9650751e-05
7.739166e-05
8.656107e-05
9.7457491e-05
0.00011043651
0.00012592489
0.00014445201
0.0001666633
0.00019334503
0.00022545585
0.00026416947
0.00031092629
0.00036748823
0.00043601536
0.00051915601
0.00062016947
0.00074307896
0.00089287036
0.0010757608
0.0011785868
0.001179408
0.0011801248
0.0011807466
0.0011812314
0.001181576
0.0011817693
0.0011818043
0.0011816731
0.0011813623
0.0011808487
0.0011800962
0.0011790424
0.0011776418
0.001176144
0.0011748583
0.0011737208
0.0011726999
0.0011725824
0.0011712486
0.0011710129
5.2336304e-07
1.1385606e-05
2.1043551e-05
2.2703845e-05
1.8088787e-05
2.4442151e-05
1.7184397e-05
2.332054e-05
1.831247e-05
2.5417915e-05
2.1833275e-05
2.5647384e-05
2.3643739e-05
2.4058175e-05
2.3334692e-05
2.3128473e-05
2.2901973e-05
2.2824786e-05
2.2841711e-05
2.2956471e-05
2.3166631e-05
2.3470519e-05
2.3866063e-05
2.4353511e-05
2.4934592e-05
2.5615484e-05
2.6403852e-05
2.7312444e-05
2.8357588e-05
2.9557465e-05
3.0931154e-05
3.2503552e-05
3.4307214e-05
3.6382295e-05
3.8778758e-05
4.1556567e-05
4.4787709e-05
4.8557494e-05
5.2970669e-05
5.8159256e-05
6.4280725e-05
7.1516948e-05
8.0097356e-05
9.0306636e-05
0.0001024864
0.00011704244
0.0001344799
0.00015541678
0.00018060774
0.00021097356
0.0002476421
0.00029200126
0.00034575125
0.00041098072
0.00049025331
0.00058672788
0.00070430908
0.00084783261
0.0010233117
0.0011781008
0.0011789209
0.0011795879
0.0011801697
0.0011806182
0.0011809298
0.001181093
0.0011810999
0.0011809427
0.0011806082
0.0011800734
0.0011793058
0.00117825
0.0011768639
0.0011754388
0.0011742178
0.0011731064
0.0011721905
0.0011718141
0.0011710853
0.0011710164
4.676031e-07
1.0883253e-05
1.9897405e-05
2.077416e-05
1.6199576e-05
2.1518963e-05
1.5287033e-05
2.0241986e-05
1.6450613e-05
2.2262171e-05
1.9885806e-05
2.2801445e-05
2.1393245e-05
2.1518108e-05
2.0964239e-05
2.0737112e-05
2.054946e-05
2.0480583e-05
2.0503054e-05
2.0613562e-05
2.081128e-05
2.109496e-05
2.1462846e-05
2.1915522e-05
2.2454341e-05
2.3085285e-05
2.381524e-05
2.465579e-05
2.5622181e-05
2.6732148e-05
2.8003839e-05
2.9460317e-05
3.1132002e-05
3.3056308e-05
3.5280181e-05
3.7860121e-05
4.0864553e-05
4.4374549e-05
4.8488464e-05
5.333098e-05
5.9054417e-05
6.5832096e-05
7.3881477e-05
8.3474487e-05
9.4941771e-05
0.00010867232
0.00012515116
0.0001449736
0.00016886828
0.00019772564
0.00023263601
0.00027494447
0.00032630059
0.00038873472
0.00046474146
0.000557397
0.00067050806
0.00080879427
0.00097811673
0.001177769
0.0011785774
0.0011791796
0.001179703
0.0011800977
0.0011803594
0.0011804768
0.0011804408
0.0011802436
0.0011798722
0.0011793033
0.0011785063
0.0011774347
0.0011760509
0.0011747062
0.0011735541
0.0011725053
0.0011716404
0.0011711999
0.0011707782
0.0011709475
4.1559975e-07
1.0508584e-05
1.8886282e-05
1.9909872e-05
1.4589314e-05
1.8998197e-05
1.3615265e-05
1.767293e-05
1.4798402e-05
1.9595913e-05
1.8141133e-05
2.0295386e-05
1.9329273e-05
1.9244182e-05
1.881738e-05
1.8591538e-05
1.8437502e-05
1.8381519e-05
1.8411434e-05
1.8520462e-05
1.8708578e-05
1.8975103e-05
1.9318667e-05
1.9740343e-05
2.0241275e-05
2.0827409e-05
2.1505132e-05
2.2285113e-05
2.3181571e-05
2.4211883e-05
2.5393587e-05
2.67482e-05
2.8304417e-05
3.0097316e-05
3.2171313e-05
3.4579945e-05
3.7388593e-05
4.0675051e-05
4.4532643e-05
4.9079283e-05
5.4463412e-05
6.0851963e-05
6.8452895e-05
7.7526919e-05
8.8396921e-05
0.00010143912
0.00011712282
0.00013602593
0.00015885725
0.00018648525
0.00021997211
0.00026063194
0.00031007759
0.00037029842
0.00044374133
0.00053342592
0.000643092
0.00077738278
0.00094206716
0.0011443071
0.0011784462
0.0011789672
0.0011794142
0.0011797382
0.0011799343
0.0011799908
0.001179898
0.0011796476
0.0011792271
0.0011786127
0.0011777747
0.0011766782
0.0011752867
0.0011740172
0.0011729317
0.0011719457
0.0011711077
0.0011706188
0.0011704266
0.0011704953
3.624185e-07
1.0237152e-05
1.8030751e-05
1.9963549e-05
1.4420488e-05
1.6800522e-05
1.2153848e-05
1.5475022e-05
1.3382515e-05
1.7309056e-05
1.6598891e-05
1.8048662e-05
1.7413675e-05
1.718659e-05
1.6853264e-05
1.6642853e-05
1.6515494e-05
1.6471831e-05
1.6506836e-05
1.6612961e-05
1.6790543e-05
1.7039651e-05
1.7359337e-05
1.7751209e-05
1.8216361e-05
1.876074e-05
1.9390369e-05
2.0115188e-05
2.0948395e-05
2.190696e-05
2.300803e-05
2.4271845e-05
2.5725686e-05
2.7402631e-05
2.934494e-05
3.1603604e-05
3.4241318e-05
3.7333269e-05
4.0969077e-05
4.526028e-05
5.035214e-05
5.6406913e-05
6.3625265e-05
7.2257493e-05
8.2620783e-05
9.5081614e-05
0.0001100965
0.00012822937
0.00015017288
0.00017677883
0.00020908667
0.00024838638
0.00029626163
0.00035466971
0.00042602065
0.00051329017
0.00062016626
0.0007512327
0.00091218851
0.0011101025
0.0011784884
0.0011789146
0.0011792692
0.0011795073
0.0011796234
0.0011796058
0.0011794437
0.0011791282
0.0011786475
0.0011779777
0.0011770878
0.0011759578
0.001174566
0.001173368
0.0011723487
0.0011714243
0.0011706039
0.0011701026
0.0011700408
0.0011698154
3.2625755e-07
1.0054713e-05
1.7354593e-05
1.9646156e-05
1.4188495e-05
1.4891621e-05
1.1548453e-05
1.3660641e-05
1.2624468e-05
1.5439457e-05
1.5258447e-05
1.6083193e-05
1.5667768e-05
1.5356041e-05
1.5080968e-05
1.4887646e-05
1.4777376e-05
1.4741492e-05
1.4777892e-05
1.4879204e-05
1.5045751e-05
1.5278197e-05
1.5575867e-05
1.5940639e-05
1.6373798e-05
1.6881172e-05
1.7468515e-05
1.8145211e-05
1.8923482e-05
1.981987e-05
2.0851337e-05
2.2037106e-05
2.3403366e-05
2.4981562e-05
2.6812225e-05
2.8944282e-05
3.1438215e-05
3.4367206e-05
3.7818603e-05
4.1898532e-05
4.6749434e-05
5.2530665e-05
5.9438374e-05
6.7713539e-05
7.7669888e-05
8.9667666e-05
0.00010415412
0.00012168348
0.00014293668
0.00016875546
0.00020016351
0.0002384354
0.00028513579
0.00034220183
0.00041202166
0.00049754491
0.00060242869
0.00073122203
0.00088958712
0.0010845455
0.0011786982
0.0011790164
0.0011792642
0.0011794029
0.0011794261
0.0011793222
0.0011790797
0.0011786885
0.0011781374
0.0011774038
0.0011764532
0.0011752789
0.0011739028
0.0011727725
0.0011718176
0.0011709518
0.0011701509
0.001169632
0.0011696562
0.0011692694
2.9111284e-07
9.9454896e-06
1.6821589e-05
1.8523496e-05
1.400821e-05
1.3148341e-05
1.1530828e-05
1.2572096e-05
1.2070298e-05
1.3721094e-05
1.4042213e-05
1.4343609e-05
1.4042028e-05
1.3694726e-05
1.3453928e-05
1.3279123e-05
1.3182677e-05
1.3154336e-05
1.3192689e-05
1.3290941e-05
1.3449001e-05
1.3668058e-05
1.3947705e-05
1.4205437e-05
1.4601474e-05
1.5068631e-05
1.5611984e-05
1.624016e-05
1.6964218e-05
1.7799911e-05
1.8763986e-05
1.9874693e-05
2.1157232e-05
2.2641512e-05
2.4366486e-05
2.6379225e-05
2.873816e-05
3.1514528e-05
3.4794281e-05
3.8971088e-05
4.3630123e-05
4.9195056e-05
5.5860316e-05
6.385898e-05
7.35026e-05
8.5148595e-05
9.9238326e-05
0.00011632023
0.00013706727
0.00016231724
0.00019308425
0.00023063534
0.00027652522
0.00033268137
0.00040148309
0.00048586961
0.00058948549
0.00071686608
0.00087366304
0.0010668884
0.0011790535
0.0011792526
0.0011793814
0.001179409
0.0011793285
0.0011791281
0.0011787957
0.00117832
0.0011776899
0.0011768854
0.0011758689
0.0011746376
0.0011733059
0.0011722395
0.0011713458
0.0011705368
0.0011697639
0.0011692253
0.0011692283
0.001168797
2.6807023e-07
9.8816518e-06
1.6360386e-05
1.6796645e-05
1.2546611e-05
1.1449605e-05
9.7194952e-06
1.1165856e-05
1.0215046e-05
1.2361745e-05
1.2812316e-05
1.2743051e-05
1.2490398e-05
1.2154299e-05
1.1942891e-05
1.1792183e-05
1.1712554e-05
1.1695133e-05
1.1667399e-05
1.1748648e-05
1.1889332e-05
1.2089711e-05
1.2348087e-05
1.2664286e-05
1.3043203e-05
1.3488541e-05
1.4005545e-05
1.4602801e-05
1.5290803e-05
1.6084868e-05
1.7002017e-05
1.8060017e-05
1.928365e-05
2.0701895e-05
2.2352844e-05
2.4282444e-05
2.654796e-05
2.9219498e-05
3.2382639e-05
3.6141646e-05
4.0623662e-05
4.598969e-05
5.2434542e-05
6.0692559e-05
7.0118516e-05
8.1525079e-05
9.5351505e-05
0.00011214428
0.00013257229
0.00015747599
0.0001878664
0.0002250114
0.00027046565
0.00032615827
0.00039447374
0.00047835797
0.00058146319
0.00070833449
0.00086464051
0.0010574226
0.0011795337
0.0011796043
0.0011796046
0.0011795119
0.0011793188
0.0011790137
0.0011785838
0.0011780167
0.0011773005
0.0011764189
0.0011753364
0.0011740369
0.0011727832
0.0011717772
0.0011709404
0.0011701865
0.0011694482
0.0011688919
0.001168821
0.0011683726
2.3887699e-07
9.8409757e-06
1.5866828e-05
1.4708607e-05
1.0278358e-05
1.0200033e-05
8.040135e-06
9.5898884e-06
9.761584e-06
1.1077936e-05
1.157599e-05
1.1263425e-05
1.1036365e-05
1.0736548e-05
1.0553807e-05
1.0355864e-05
1.0267045e-05
1.0245492e-05
1.0283858e-05
1.0378821e-05
1.0525248e-05
1.0726799e-05
1.0980899e-05
1.1288346e-05
1.1653936e-05
1.2082257e-05
1.257867e-05
1.3151835e-05
1.3811883e-05
1.4573697e-05
1.5454691e-05
1.6472424e-05
1.765158e-05
1.902053e-05
2.0616872e-05
2.2485922e-05
2.4684296e-05
2.7281554e-05
3.0362757e-05
3.4031466e-05
3.8415461e-05
4.3673735e-05
5.0004585e-05
5.7638151e-05
6.6869343e-05
7.8065069e-05
9.2475906e-05
0.00010913571
0.0001294296
0.00015420698
0.00018448268
0.00022153385
0.0002669251
0.0003225988
0.00039095876
0.00047497517
0.00057832877
0.00070559852
0.00086249721
0.0010561321
0.0011801139
0.0011800489
0.001179914
0.0011796942
0.0011793822
0.0011789664
0.0011784335
0.0011777701
0.001176963
0.0011759984
0.0011748544
0.001173508
0.0011723402
0.0011713921
0.0011706075
0.001169907
0.0011692059
0.0011686252
0.001168473
0.0011679829
2.1693669e-07
9.7972364e-06
1.4047132e-05
1.2863606e-05
8.309607e-06
9.0801337e-06
7.2887984e-06
8.6375038e-06
9.0413954e-06
9.9122679e-06
1.0357226e-05
9.9225536e-06
9.7052438e-06
9.3554519e-06
9.1638554e-06
9.0430771e-06
8.990153e-06
8.9956053e-06
9.052054e-06
9.1602951e-06
9.3143224e-06
9.5163654e-06
9.7680466e-06
1.006947e-05
1.0425733e-05
1.0841912e-05
1.132357e-05
1.1879597e-05
1.251993e-05
1.3259061e-05
1.4114861e-05
1.5105007e-05
1.6254328e-05
1.7590867e-05
1.9152067e-05
2.098305e-05
2.314026e-05
2.5693305e-05
2.8727768e-05
3.2347893e-05
3.6681821e-05
4.1888411e-05
4.8169943e-05
5.5757107e-05
6.4948014e-05
7.6112604e-05
8.9707045e-05
0.0001062671
0.00012762863
0.00015250098
0.0001829266
0.0002202002
0.00026590716
0.00032201533
0.00039096288
0.00047576291
0.00058014705
0.00070875466
0.00086737162
0.0010632065
0.0011807678
0.0011805627
0.0011802886
0.0011799379
0.001179503
0.0011789728
0.0011783335
0.001177571
0.001176671
0.0011756193
0.001174414
0.0011730726
0.0011719816
0.001171089
0.0011703515
0.0011697026
0.0011690424
0.00116843
0.0011681811
0.0011676807
1.9956305e-07
9.7466149e-06
1.1140886e-05
1.057959e-05
6.8842395e-06
8.0878856e-06
6.6575854e-06
7.7657161e-06
8.4640505e-06
8.8511335e-06
9.1632865e-06
8.6126451e-06
8.3464222e-06
8.1035824e-06
7.9627119e-06
7.8837275e-06
7.8608744e-06
7.890525e-06
7.9648349e-06
8.0832057e-06
8.2441656e-06
8.449473e-06
8.7011578e-06
8.9999987e-06
9.3512253e-06
9.7604422e-06
1.0233563e-05
1.0779771e-05
1.1409016e-05
1.2135462e-05
1.2910972e-05
1.387516e-05
1.4996958e-05
1.6304027e-05
1.7833631e-05
1.9630718e-05
2.1751637e-05
2.4266103e-05
2.7260366e-05
3.0839673e-05
3.5133697e-05
4.061918e-05
4.6916144e-05
5.4534951e-05
6.3777085e-05
7.5016946e-05
8.8724272e-05
0.00010544819
0.00012588116
0.00015088652
0.00018318357
0.0002209995
0.00026740636
0.00032441028
0.00039449971
0.00048075053
0.00058696899
0.00071788381
0.00087938569
0.0010788184
0.0011814683
0.0011811208
0.0011807068
0.0011802238
0.0011796646
0.0011790186
0.0011782717
0.0011774092
0.0011764169
0.0011752791
0.001174004
0.0011727284
0.0011717102
0.0011708709
0.0011701762
0.001169575
0.00116896
0.0011683222
0.00116797
0.0011675841
1.835057e-07
9.6984959e-06
8.8003669e-06
9.0168543e-06
6.1712829e-06
7.1729578e-06
6.1173671e-06
7.0078856e-06
7.8775228e-06
7.8640667e-06
7.8686614e-06
7.3998792e-06
7.1833777e-06
7.0057637e-06
6.9082026e-06
6.864469e-06
6.8694694e-06
6.918508e-06
7.0082313e-06
7.138412e-06
7.3075792e-06
7.5179595e-06
7.7725528e-06
8.072679e-06
8.4237177e-06
8.7937839e-06
9.2571016e-06
9.7931751e-06
1.0411825e-05
1.1126745e-05
1.1954411e-05
1.2916232e-05
1.4036392e-05
1.53427e-05
1.6872878e-05
1.8672475e-05
2.0798704e-05
2.3322412e-05
2.6331829e-05
2.9934719e-05
3.4264162e-05
3.9486471e-05
4.5805468e-05
5.3465656e-05
6.2774138e-05
7.4756915e-05
8.8706547e-05
0.00010574699
0.00012658406
0.00015210898
0.00018341079
0.00022392177
0.00027142028
0.00032979173
0.00040159155
0.00048997991
0.00059886317
0.00073309105
0.00089869565
0.0011031889
0.0011821881
0.0011816987
0.0011811466
0.0011805327
0.0011798503
0.0011790893
0.001178236
0.0011772743
0.0011761912
0.0011749772
0.0011736359
0.0011724745
0.0011715262
0.0011707392
0.0011700839
0.001169524
0.001168953
0.0011683115
0.0011678832
0.0011675529
1.6962511e-07
9.6270121e-06
7.0109152e-06
7.9333056e-06
5.5105694e-06
6.3557675e-06
5.6537765e-06
6.3359217e-06
7.1767903e-06
6.7432483e-06
6.7007817e-06
6.3406004e-06
6.170025e-06
6.0455263e-06
5.9853774e-06
5.9721269e-06
6.0010759e-06
6.0696936e-06
6.174847e-06
6.3172587e-06
6.4964138e-06
6.71468e-06
6.9461304e-06
7.2452556e-06
7.5952366e-06
8.0010567e-06
8.4709618e-06
9.013791e-06
9.6396018e-06
1.0362323e-05
1.1198625e-05
1.2169707e-05
1.3301229e-05
1.4621494e-05
1.6168982e-05
1.7990276e-05
2.0144073e-05
2.2702941e-05
2.5757896e-05
2.9420388e-05
3.382713e-05
3.9148505e-05
4.559914e-05
5.3430108e-05
6.2958607e-05
7.4579218e-05
8.878216e-05
0.00010616019
0.00012856583
0.00015483168
0.00018706217
0.00022664947
0.00027793752
0.00033815856
0.0004122508
0.00050348221
0.00061588681
0.00075446879
0.00092544523
0.0011365322
0.0011829011
0.0011822726
0.0011815871
0.001180846
0.0011800436
0.0011791706
0.0011782137
0.0011771566
0.0011759848
0.0011747068
0.0011733797
0.001172307
0.0011714273
0.0011706926
0.0011700764
0.001169549
0.0011690129
0.0011683915
0.0011679416
0.0011676471
1.5741084e-07
9.5009815e-06
5.6390393e-06
6.9526716e-06
4.9189373e-06
5.6287217e-06
5.2621566e-06
5.650086e-06
6.2935098e-06
5.7712808e-06
5.6781729e-06
5.4163701e-06
5.2890088e-06
5.2089651e-06
5.1820565e-06
5.1963967e-06
5.2479914e-06
5.3354217e-06
5.4566147e-06
5.591787e-06
5.7766407e-06
6.0008018e-06
6.2670627e-06
6.5790014e-06
6.9416753e-06
7.3604672e-06
7.8435139e-06
8.4003489e-06
9.0412783e-06
9.7804354e-06
1.0634671e-05
1.1625511e-05
1.2721583e-05
1.4055913e-05
1.5620626e-05
1.746331e-05
1.9644378e-05
2.2238173e-05
2.5338543e-05
2.9061199e-05
3.3547633e-05
3.926941e-05
4.5910583e-05
5.3983885e-05
6.3817864e-05
7.5818957e-05
9.0501491e-05
0.00010848517
0.0001305291
0.00015902199
0.00019245063
0.00023352912
0.00028403594
0.00034949297
0.0004264716
0.00052126752
0.00063807373
0.00078208272
0.0009597468
0.0011790353
0.001183583
0.0011828207
0.0011820085
0.0011811463
0.0011802293
0.0011792489
0.001178193
0.0011770468
0.0011757947
0.0011744492
0.0011732159
0.001172224
0.001171409
0.0011707277
0.0011701529
0.0011696502
0.0011691331
0.0011685536
0.0011681592
0.0011678742
1.4668035e-07
9.2860509e-06
4.6078955e-06
6.0773213e-06
4.3908059e-06
4.9842808e-06
4.9226261e-06
4.9039477e-06
5.4035218e-06
4.9071629e-06
4.7945575e-06
4.6137897e-06
4.5272685e-06
4.4855887e-06
4.488917e-06
4.5289271e-06
4.602477e-06
4.6903741e-06
4.822548e-06
4.9898561e-06
5.1934884e-06
5.4353627e-06
5.718999e-06
6.0481542e-06
6.4284847e-06
6.8656392e-06
7.3678197e-06
7.9212757e-06
8.5775671e-06
9.3330736e-06
1.0204751e-05
1.121422e-05
1.2387948e-05
1.3759218e-05
1.5367779e-05
1.7262897e-05
1.9507853e-05
2.2179936e-05
2.5376893e-05
2.9220481e-05
3.3858897e-05
3.9478877e-05
4.6306313e-05
5.4619519e-05
6.4761478e-05
7.7802051e-05
9.3086759e-05
0.00011182143
0.00013480328
0.00016301589
0.00019952854
0.00024242185
0.00029518112
0.00036009573
0.00044421046
0.00054330182
0.00066540583
0.00081593796
0.0010016366
0.0011850738
0.0011842117
0.001183324
0.0011823938
0.0011814182
0.0011803936
0.0011793124
0.001178163
0.0011769338
0.0011756212
0.0011742597
0.0011731384
0.0011722205
0.0011714656
0.0011708381
0.0011703093
0.0011698272
0.0011693113
0.0011687786
0.0011685064
0.001168256
1.3734603e-07
8.98419e-06
3.9605317e-06
5.3000528e-06
3.9217488e-06
4.4144205e-06
4.3834088e-06
4.230169e-06
4.5459758e-06
4.1450699e-06
4.0390396e-06
3.9229026e-06
3.8746698e-06
3.8670927e-06
3.8985044e-06
3.9485356e-06
4.0369389e-06
4.1592463e-06
4.314773e-06
4.5039707e-06
4.728663e-06
4.9912905e-06
5.2957972e-06
5.6462264e-06
6.0350078e-06
6.4908527e-06
7.0122771e-06
7.6088055e-06
8.2924287e-06
9.0774559e-06
9.981341e-06
1.1026652e-05
1.2241021e-05
1.3659089e-05
1.5323436e-05
1.7285254e-05
1.9611337e-05
2.238276e-05
2.5701468e-05
2.9696649e-05
3.4522656e-05
4.0375894e-05
4.7497252e-05
5.6177865e-05
6.6780483e-05
7.975028e-05
9.6484547e-05
0.00011611493
0.00014020559
0.00016980122
0.00020616065
0.00025324756
0.00030864452
0.00037682835
0.00046076533
0.00056947635
0.00069777607
0.00085593627
0.001051022
0.0011857418
0.0011847687
0.0011837668
0.0011827286
0.0011816492
0.0011805253
0.0011793511
0.0011781167
0.0011768118
0.0011754479
0.0011741718
0.0011731394
0.0011722907
0.0011715909
0.0011710157
0.0011705363
0.0011700768
0.0011695529
0.0011690571
0.001168886
0.0011687564
1.2944414e-07
8.1115781e-06
3.4932002e-06
4.6057789e-06
3.5064694e-06
3.7452276e-06
3.9084586e-06
3.613092e-06
3.7694363e-06
3.4836799e-06
3.4005038e-06
3.335857e-06
3.322964e-06
3.3465767e-06
3.3875941e-06
3.4712795e-06
3.5876705e-06
3.7355788e-06
3.9152468e-06
4.127872e-06
4.3758359e-06
4.6618558e-06
4.9807677e-06
5.3525855e-06
5.7764671e-06
6.2590907e-06
6.8085017e-06
7.434594e-06
8.1496402e-06
8.9688958e-06
9.9104189e-06
1.0997797e-05
1.2259984e-05
1.3733431e-05
1.5397208e-05
1.7421189e-05
1.9823158e-05
2.2688555e-05
2.6281082e-05
3.0456156e-05
3.5504928e-05
4.1633401e-05
4.9098775e-05
5.8208144e-05
6.9343159e-05
8.2976372e-05
9.9687657e-05
0.00012018884
0.00014665317
0.00017782936
0.00021614772
0.00026326825
0.00032428073
0.00039618794
0.00048472657
0.00059957075
0.00073494099
0.00090181978
0.0011076343
0.0011863186
0.0011852421
0.0011841375
0.0011830023
0.0011818298
0.0011806162
0.0011793575
0.0011780474
0.0011766854
0.001175308
0.0011741626
0.0011732122
0.0011724269
0.0011717786
0.0011712519
0.0011708206
0.0011703887
0.0011698632
0.0011694154
0.0011693653
0.0011693929
1.2322374e-07
5.9161871e-06
3.0949796e-06
3.9773571e-06
3.1482641e-06
3.1271673e-06
3.4339336e-06
3.053517e-06
3.1017809e-06
2.9191267e-06
2.8669555e-06
2.844929e-06
2.8562846e-06
2.9009258e-06
2.9821623e-06
3.0955584e-06
3.2390787e-06
3.412598e-06
3.6171486e-06
3.8543878e-06
4.1211645e-06
4.430235e-06
4.7817747e-06
5.1805382e-06
5.6322204e-06
6.1437445e-06
6.7235468e-06
7.3819322e-06
8.1315904e-06
8.9687747e-06
9.9455521e-06
1.1071838e-05
1.2377821e-05
1.3901326e-05
1.5689655e-05
1.7801937e-05
2.0311262e-05
2.3309106e-05
2.6908946e-05
3.1250956e-05
3.6509157e-05
4.3206781e-05
5.1060706e-05
6.0654383e-05
7.2389624e-05
8.6766004e-05
0.00010439812
0.00012604272
0.00015403146
0.000186968
0.00022746676
0.00027728098
0.00034186787
0.00041791441
0.00051157698
0.00062697451
0.00077647607
0.00095310941
0.0011709428
0.0011867976
0.0011856249
0.001184429
0.0011832079
0.001181954
0.0011806615
0.0011793282
0.0011779523
0.0011765477
0.0011752668
0.0011742193
0.0011733469
0.0011726202
0.0011720215
0.0011715388
0.0011711475
0.0011707459
0.0011702427
0.0011698581
0.0011699188
0.0011699846
1.1834762e-07
4.4261462e-06
2.7386388e-06
3.3959225e-06
2.6914863e-06
2.6077337e-06
2.9331902e-06
2.5550987e-06
2.5468569e-06
2.4454594e-06
2.4283373e-06
2.435796e-06
2.4799516e-06
2.5603528e-06
2.6724975e-06
2.8137923e-06
2.9835108e-06
3.182263e-06
3.4084761e-06
3.6691785e-06
3.9655711e-06
4.3009905e-06
4.6795056e-06
5.1060749e-06
5.5866897e-06
6.1285825e-06
6.7405452e-06
7.422183e-06
8.2046386e-06
9.0966144e-06
1.0118528e-05
1.1295747e-05
1.2660242e-05
1.425216e-05
1.6121821e-05
1.8331925e-05
2.0960378e-05
2.410409e-05
2.7883596e-05
3.2448428e-05
3.7983842e-05
4.4718227e-05
5.3327794e-05
6.3452103e-05
7.5844853e-05
9.1034706e-05
0.00010967265
0.00013256182
0.00016069278
0.00019703876
0.00023990594
0.0002926493
0.00035757488
0.00044163449
0.00054086631
0.00066315447
0.0008217324
0.0010090426
0.0011884416
0.0011871762
0.001185916
0.0011846396
0.0011833429
0.001182019
0.0011806599
0.0011792631
0.0011778423
0.0011764411
0.0011752902
0.0011743325
0.0011735325
0.0011728603
0.0011723092
0.0011718697
0.0011715075
0.0011711261
0.0011706636
0.0011703512
0.0011704977
0.0011705954
1.1318943e-07
3.9406926e-06
2.3593716e-06
2.8581714e-06
2.3189237e-06
2.1730546e-06
2.4163792e-06
2.1193482e-06
2.0982191e-06
2.0594147e-06
2.0729935e-06
2.1164659e-06
2.1977502e-06
2.3097346e-06
2.449722e-06
2.6167155e-06
2.8110008e-06
3.0315841e-06
3.284047e-06
3.5696984e-06
3.8915045e-06
4.2530675e-06
4.6587038e-06
5.1135768e-06
5.623897e-06
6.1971721e-06
6.8349672e-06
7.5603118e-06
8.3818983e-06
9.3168432e-06
1.0386683e-05
1.1618307e-05
1.3045532e-05
1.4710863e-05
1.6667787e-05
1.8983247e-05
2.1740328e-05
2.5041966e-05
2.9016152e-05
3.3821039e-05
3.9652916e-05
4.7092787e-05
5.5835198e-05
6.6525134e-05
7.9618515e-05
9.5674547e-05
0.00011538234
0.00013959193
0.00017092106
0.00020781016
0.00025318424
0.00030902852
0.00037778988
0.0004668398
0.00057198569
0.00070160342
0.00086978731
0.0010684991
0.0011887883
0.0011874552
0.0011861195
0.0011847731
0.0011834099
0.0011820256
0.0011806136
0.0011791665
0.0011777084
0.0011764227
0.0011753642
0.0011744884
0.001173757
0.0011731401
0.0011726321
0.0011722342
0.0011718961
0.0011715318
0.0011711149
0.0011708862
0.0011710967
0.0011711946
1.0975502e-07
3.4307447e-06
2.0337878e-06
2.3114232e-06
2.0137943e-06
1.8022369e-06
1.9378328e-06
1.7522863e-06
1.7485763e-06
1.7598242e-06
1.8045608e-06
1.8865705e-06
1.9990691e-06
2.1380173e-06
2.3023465e-06
2.4923013e-06
2.7077943e-06
2.952494e-06
3.2282382e-06
3.5377519e-06
3.8842984e-06
4.2716997e-06
4.70444e-06
5.1878333e-06
5.72826e-06
6.3291548e-06
7.0063995e-06
7.7688215e-06
8.6307255e-06
9.6100691e-06
1.0729651e-05
1.2017957e-05
1.3510843e-05
1.5253312e-05
1.7301948e-05
1.9727878e-05
2.2619986e-05
2.6087343e-05
3.0266118e-05
3.5323895e-05
4.1741157e-05
4.9289004e-05
5.8505553e-05
6.9782939e-05
8.360198e-05
0.00010055504
0.00012137094
0.00014694922
0.00018000694
0.00021898516
0.00026694424
0.00032598526
0.00039870585
0.00049285242
0.00060411291
0.00074132466
0.00091940366
0.0011299697
0.0011890382
0.0011876434
0.0011862435
0.0011848377
0.0011834176
0.001181979
0.0011805233
0.0011790605
0.001177627
0.0011764587
0.0011754818
0.0011746736
0.0011740039
0.0011734458
0.0011729764
0.0011726176
0.0011723006
0.0011719514
0.0011715824
0.0011714387
0.0011716943
0.00117177
1.0831274e-07
2.8985678e-06
1.7525161e-06
1.7850211e-06
1.7353849e-06
1.4865628e-06
1.5483825e-06
1.461591e-06
1.4898189e-06
1.536707e-06
1.6202855e-06
1.7326605e-06
1.8702844e-06
2.0315691e-06
2.2167954e-06
2.4271341e-06
2.6635614e-06
2.929599e-06
3.2273825e-06
3.559904e-06
3.9306011e-06
4.3434387e-06
4.8030254e-06
5.3147948e-06
5.8852562e-06
6.522335e-06
7.2358148e-06
8.0378686e-06
8.9334618e-06
9.957784e-06
1.112786e-05
1.2473873e-05
1.4033854e-05
1.5855533e-05
1.7998637e-05
2.0621479e-05
2.3674384e-05
2.733814e-05
3.1757811e-05
3.7112296e-05
4.3621883e-05
5.1557432e-05
6.1253541e-05
7.3122097e-05
8.7670453e-05
0.00010552406
0.0001274527
0.00015575417
0.00018914242
0.00023020889
0.00028074953
0.00034298403
0.00042363119
0.00051883453
0.00063622095
0.00078106288
0.00096901015
0.0011906934
0.001189207
0.0011877557
0.0011863003
0.0011848441
0.0011833791
0.0011818971
0.0011803956
0.0011789085
0.0011776179
0.001176537
0.0011756348
0.0011748817
0.0011742583
0.0011737652
0.00117333
0.0011730043
0.0011727091
0.0011723817
0.0011720646
0.0011719922
0.00117227
0.001172311
1.09931e-07
2.3674736e-06
1.518738e-06
1.3808576e-06
1.4547198e-06
1.2231187e-06
1.2640097e-06
1.2492346e-06
1.310499e-06
1.3917035e-06
1.5034315e-06
1.638726e-06
1.796277e-06
1.9762164e-06
2.1797703e-06
2.4086893e-06
2.6647477e-06
2.9509831e-06
3.2699402e-06
3.6247432e-06
4.0189315e-06
4.4565627e-06
4.942347e-06
5.4818378e-06
6.0816959e-06
6.7500457e-06
7.496952e-06
8.3350142e-06
9.2801055e-06
1.0352308e-05
1.157701e-05
1.2986368e-05
1.4620892e-05
1.6531507e-05
1.8781938e-05
2.1451653e-05
2.4639489e-05
2.8468368e-05
3.3090337e-05
3.8693544e-05
4.5510302e-05
5.3826311e-05
6.3990922e-05
7.6436899e-05
9.1695852e-05
0.00011133735
0.0001345142
0.00016299165
0.00019800621
0.00024108583
0.0002941168
0.00036280579
0.00044388338
0.00054382879
0.00066712613
0.000827308
0.0010167486
0.0011908346
0.0011893122
0.0011878116
0.0011863092
0.0011848066
0.0011833019
0.0011817948
0.0011802901
0.0011788285
0.0011776449
0.0011766457
0.0011758113
0.0011751128
0.0011745349
0.0011740551
0.0011736826
0.0011733802
0.0011731065
0.0011728102
0.0011725513
0.001172533
0.0011728036
0.0011728156
1.1582724e-07
1.8729817e-06
1.3310689e-06
1.086364e-06
1.3016536e-06
1.0036269e-06
1.0708453e-06
1.1082734e-06
1.196041e-06
1.3043761e-06
1.4364967e-06
1.589373e-06
1.7634139e-06
1.9597609e-06
2.1801301e-06
2.4265307e-06
2.7012491e-06
3.0066567e-06
3.3458583e-06
3.7219477e-06
4.1385393e-06
4.5997757e-06
5.1104703e-06
5.6763063e-06
6.3041114e-06
7.0022283e-06
7.7810147e-06
8.6535229e-06
9.636249e-06
1.0750155e-05
1.202177e-05
1.3484777e-05
1.5181652e-05
1.7165819e-05
1.9504143e-05
2.2280032e-05
2.5597121e-05
2.9583827e-05
3.439891e-05
4.0238334e-05
4.7666953e-05
5.6406776e-05
6.7088591e-05
8.0166181e-05
9.6197302e-05
0.00011586905
0.0001400286
0.000169721
0.00020623234
0.00025350556
0.00030923101
0.00037785423
0.00046241996
0.00056670987
0.00070221102
0.00086238025
0.0010603487
0.0011909188
0.0011893652
0.001187829
0.0011862926
0.0011847534
0.001183208
0.001181661
0.0011801459
0.0011788163
0.0011777046
0.0011767728
0.0011759919
0.0011753377
0.0011748104
0.0011743574
0.0011740172
0.0011737371
0.0011734797
0.0011732178
0.0011730205
0.0011730532
0.0011733094
0.0011732777
1.2673462e-07
1.4980396e-06
1.1724158e-06
9.4011803e-07
9.5444295e-07
8.7982256e-07
9.4232641e-07
1.0219805e-06
1.1299161e-06
1.2572119e-06
1.4046838e-06
1.5721332e-06
1.7607864e-06
1.9721664e-06
2.2081314e-06
2.4707555e-06
2.7623605e-06
3.0855348e-06
3.4431798e-06
3.838564e-06
4.2754006e-06
4.757954e-06
5.291189e-06
5.8809834e-06
6.5344221e-06
7.2576078e-06
8.0650284e-06
8.9685376e-06
9.9941749e-06
1.1149784e-05
1.246922e-05
1.3987832e-05
1.5750156e-05
1.7812131e-05
2.0243713e-05
2.3132041e-05
2.6585292e-05
3.0737409e-05
3.5753853e-05
4.1838748e-05
4.9243651e-05
5.8278399e-05
6.9324273e-05
8.2848382e-05
9.9428068e-05
0.00011977365
0.00014604946
0.00017699583
0.00021503921
0.00026184034
0.00031945296
0.00039042433
0.0004779148
0.00059142201
0.00072566731
0.0008915428
0.001096724
0.0011909713
0.0011893877
0.0011878211
0.0011862605
0.0011847024
0.0011831434
0.001181589
0.0011800832
0.0011788445
0.0011777968
0.0011769196
0.0011761834
0.0011755667
0.001175082
0.0011746429
0.0011743237
0.00117407
0.0011738246
0.0011735952
0.0011734489
0.0011735149
0.0011737509
0.0011737049
1.4863226e-07
1.5076258e-06
1.0119513e-06
7.1797728e-07
7.7893331e-07
7.8593484e-07
8.696672e-07
9.7170337e-07
1.0957113e-06
1.2374579e-06
1.3981207e-06
1.5786071e-06
1.7804186e-06
2.0051892e-06
2.2548053e-06
2.5313703e-06
2.8372394e-06
3.1750502e-06
3.5477651e-06
3.9587238e-06
4.411717e-06
4.9110898e-06
5.4618905e-06
6.0700834e-06
6.7428515e-06
7.4890098e-06
8.3195536e-06
9.2483593e-06
1.0293073e-05
1.1476168e-05
1.2826214e-05
1.4379472e-05
1.6181684e-05
1.8290318e-05
2.0777217e-05
2.3731825e-05
2.7265117e-05
3.1514364e-05
3.6648993e-05
4.2877776e-05
5.0457818e-05
6.013334e-05
7.1526561e-05
8.5471308e-05
0.00010256184
0.00012352892
0.00014927419
0.00018091073
0.00021981402
0.00026768348
0.00032662843
0.00040295006
0.00049316953
0.00060448887
0.00074198547
0.00091200702
0.0011224925
0.0011910362
0.0011894215
0.001187822
0.0011862316
0.0011846479
0.0011830716
0.0011815201
0.0011800862
0.0011789063
0.0011779104
0.001177077
0.0011763789
0.0011757958
0.001175319
0.0011749331
0.0011745901
0.0011743731
0.0011741405
0.0011739413
0.0011738297
0.001173898
0.0011740925
0.0011740534
1.4494991e-07
9.2213393e-07
8.2853489e-07
6.111785e-07
6.6861367e-07
7.2891559e-07
8.3087875e-07
9.4947664e-07
1.0863809e-06
1.2405816e-06
1.4133317e-06
1.6058252e-06
1.8195923e-06
2.0563352e-06
2.3179816e-06
2.6066923e-06
2.9248902e-06
3.2752486e-06
3.6608664e-06
4.0851422e-06
4.5519504e-06
5.0657209e-06
5.6315889e-06
6.2556098e-06
6.9450669e-06
7.7088928e-06
8.5582284e-06
9.5071457e-06
1.0582187e-05
1.1792805e-05
1.3174093e-05
1.4763233e-05
1.6607066e-05
1.876439e-05
2.1308633e-05
2.4331159e-05
2.7945252e-05
3.2290995e-05
3.7541267e-05
4.3909087e-05
5.1656631e-05
6.1106233e-05
7.2653929e-05
8.6788348e-05
0.00010411041
0.00012536112
0.00015145486
0.00018513162
0.00022485484
0.00027372342
0.00033389243
0.00040803464
0.00049947575
0.00061236219
0.00075187591
0.00092450878
0.001138394
0.0011911549