/*--------------------------------*- C++ -*----------------------------------*\
| =========                 |                                                 |
| \\      /  F ield         | OpenFOAM: The Open Source CFD Toolbox           |
|  \\    /   O peration     | Version:  2512                                  |
|   \\  /    A nd           | Website:  www.openfoam.com                      |
|    \\/     M anipulation  |                                                 |
\*---------------------------------------------------------------------------*/
FoamFile
{
    version     2.0;
    format      ascii;
    arch        "LSB;label=32;scalar=64";
    class       volScalarField;
    location    "0.149";
    object      k;
}
// * * * * * * * * * * * * * * * * * * * * * * * * * * * * * * * * * * * * * //

dimensions      [0 2 -2 0 0 0 0];

internalField   nonuniform List<scalar> 
16000
(
0.0613324
0.021381777
0.022404467
0.016517784
0.013994066
0.012670978
0.011881601
0.011408049
0.011091475
0.010876529
0.010718088
0.010600086
0.010507874
0.010434864
0.010376098
0.010328624
0.010289817
0.010257942
0.010231968
0.010210495
0.010193087
0.010178799
0.01016734
0.010158222
0.010151098
0.010145681
0.010141772
0.010139201
0.010137825
0.010137515
0.010138145
0.010139612
0.010141833
0.010144739
0.010148267
0.010152359
0.010156957
0.010162004
0.010167442
0.010173217
0.010179266
0.010185522
0.01019192
0.010198393
0.010204867
0.010211269
0.010217537
0.010223622
0.010229483
0.010235081
0.010240377
0.01024533
0.010249894
0.010254021
0.010257667
0.010260787
0.010263338
0.010265272
0.010266538
0.010267081
0.010266832
0.010265704
0.010263605
0.010260414
0.010255973
0.010250127
0.010242741
0.01023369
0.010222783
0.010209706
0.010193936
0.010174516
0.010150726
0.01012643
0.010106575
0.010090323
0.010077427
0.010083619
0.010061206
0.010084574
0.053906415
0.020030097
0.020952542
0.015972836
0.013651642
0.012470814
0.011720493
0.011296233
0.010991563
0.010794102
0.01064563
0.010536361
0.010450522
0.010382974
0.010328653
0.010285021
0.01024957
0.010220554
0.0101972
0.010178005
0.01016272
0.010150343
0.010140647
0.010133175
0.010127597
0.010123626
0.010121073
0.010119772
0.010119588
0.010120399
0.010122083
0.010124536
0.010127674
0.010131426
0.010135728
0.010140524
0.010145756
0.010151366
0.010157297
0.010163496
0.010169904
0.010176455
0.010183087
0.010189736
0.010196334
0.010202807
0.010209095
0.010215149
0.010220932
0.010226408
0.010231544
0.010236306
0.010240653
0.010244542
0.01024793
0.010250778
0.010253047
0.01025469
0.01025566
0.010255905
0.010255363
0.010253956
0.010251602
0.010248187
0.010243559
0.010237552
0.010230021
0.010220836
0.010209806
0.010196621
0.010180821
0.010161568
0.010138198
0.010115207
0.010096462
0.010080709
0.010070062
0.010070363
0.010060642
0.010084545
0.049597166
0.01906609
0.019621622
0.015412102
0.013301261
0.012245509
0.011553353
0.011170348
0.010889643
0.010710252
0.010572888
0.010472784
0.010393817
0.010332027
0.010282472
0.010242915
0.010211056
0.010185089
0.010164538
0.010147777
0.010134754
0.010124417
0.0101166
0.010110873
0.010106929
0.010104487
0.010103365
0.010103405
0.010104475
0.010106459
0.010109241
0.010112717
0.010116801
0.010121419
0.010126509
0.010132012
0.010137869
0.010144024
0.01015042
0.010157003
0.010163719
0.010170503
0.010177295
0.010184035
0.010190661
0.010197103
0.010203303
0.010209213
0.010214799
0.010220032
0.010224885
0.010229328
0.010233329
0.010236848
0.01023985
0.010242298
0.010244155
0.010245381
0.010245931
0.010245753
0.010244793
0.01024298
0.010240241
0.010236471
0.010231524
0.010225231
0.010217436
0.010208001
0.01019674
0.010183332
0.010167357
0.01014812
0.010125033
0.0101035
0.010085955
0.010071364
0.010061815
0.010060021
0.010058534
0.010082371
0.045260173
0.018413331
0.018474998
0.014909405
0.012984098
0.012042073
0.011400698
0.011056428
0.010796255
0.010633291
0.01050652
0.010414881
0.010342471
0.010286128
0.010241126
0.010205451
0.010177061
0.010154019
0.01013619
0.010121784
0.010110966
0.010102622
0.010096644
0.010092623
0.010090281
0.010089338
0.01008962
0.010090973
0.010093267
0.010096391
0.010100234
0.01010469
0.01010967
0.0101151
0.010120915
0.010127052
0.010133456
0.01014007
0.010146835
0.0101537
0.010160612
0.010167514
0.010174346
0.010181053
0.010187579
0.010193861
0.010199842
0.010205479
0.010210742
0.010215606
0.010220051
0.010224055
0.010227592
0.010230631
0.010233138
0.010235081
0.010236428
0.010237142
0.01023718
0.010236495
0.010235033
0.010232733
0.010229528
0.010225324
0.010219982
0.010213331
0.010205204
0.010195454
0.0101839
0.010170214
0.010153994
0.010134737
0.010111877
0.010091804
0.010075539
0.010062205
0.010053214
0.010050578
0.010054026
0.010074208
0.040455484
0.018024193
0.017528847
0.01444429
0.012688613
0.011849803
0.011257529
0.010948958
0.010709199
0.010561637
0.010445267
0.010361702
0.010295712
0.010244661
0.010204126
0.010172242
0.010147287
0.010127121
0.010112
0.010099935
0.010091317
0.01008497
0.010080848
0.010078534
0.010077797
0.010078359
0.010080049
0.010082714
0.010086227
0.010090478
0.010095358
0.010100761
0.010106597
0.010112786
0.010119261
0.01012596
0.010132826
0.010139801
0.010146831
0.010153863
0.01016085
0.010167738
0.010174474
0.010181008
0.010187291
0.010193267
0.010198885
0.010204106
0.010208904
0.010213262
0.010217165
0.0102206
0.010223547
0.010225982
0.010227877
0.010229203
0.010229933
0.010230032
0.010229462
0.010228174
0.01022612
0.010223244
0.010219485
0.010214759
0.010208934
0.010201843
0.010193308
0.01018317
0.010171252
0.010157229
0.010140681
0.010121345
0.010098892
0.010080288
0.010065368
0.010053284
0.010044729
0.010042062
0.010048823
0.010061991
0.037272592
0.017863107
0.016834872
0.014017985
0.012417018
0.01167097
0.011125268
0.010849456
0.010629324
0.010495946
0.010389675
0.010313723
0.010253947
0.010207999
0.010171814
0.010143608
0.01012204
0.010104698
0.010092264
0.010082534
0.010076105
0.010071766
0.01006954
0.010068917
0.010069773
0.010071839
0.010074929
0.010078893
0.0100836
0.010088944
0.010094814
0.010101106
0.010107725
0.01011459
0.01012163
0.010128782
0.010135988
0.010143195
0.010150349
0.010157401
0.010164308
0.010171024
0.010177502
0.0101837
0.010189577
0.010195087
0.010200186
0.010204839
0.010209027
0.010212738
0.010215966
0.010218704
0.010220941
0.010222659
0.010223834
0.010224442
0.010224458
0.010223853
0.010222589
0.01022062
0.010217897
0.010214369
0.010209983
0.010204661
0.010198282
0.010190682
0.010181675
0.010171087
0.010158747
0.010144345
0.010127416
0.010107913
0.010086176
0.01006905
0.010055522
0.010044665
0.010036593
0.010034094
0.01004282
0.010052109
0.033994991
0.017874611
0.016334901
0.01362686
0.012166668
0.011504863
0.011003562
0.010757659
0.01055646
0.010436089
0.010339601
0.010270885
0.010217149
0.010176173
0.010144273
0.010119681
0.010101491
0.010086966
0.010077212
0.010069876
0.010065619
0.010063347
0.010063174
0.010064167
0.010066564
0.010070132
0.010074611
0.01007985
0.010085717
0.010092101
0.010098894
0.010105991
0.010113294
0.010120719
0.010128195
0.010135658
0.010143051
0.010150325
0.01015743
0.010164324
0.010170968
0.010177328
0.010183365
0.010189044
0.010194337
0.010199208
0.010203622
0.01020755
0.010210979
0.010213904
0.010216324
0.010218242
0.010219652
0.010220544
0.010220899
0.010220696
0.010219911
0.01021852
0.010216485
0.010213762
0.010210301
0.010206055
0.010200976
0.010194993
0.010187995
0.010179824
0.010170288
0.010159197
0.010146379
0.010131564
0.010114241
0.010094433
0.010073907
0.010058255
0.010046122
0.010036477
0.010029002
0.010026721
0.010035694
0.010042269
0.031966699
0.017986891
0.015914121
0.013268576
0.011935937
0.011351323
0.010891856
0.010673464
0.010490252
0.010382007
0.010295045
0.010233298
0.010185485
0.010149406
0.01012177
0.010100761
0.010085947
0.010074286
0.010067139
0.010062408
0.010060184
0.010060188
0.010061467
0.010064439
0.010068545
0.010073597
0.010079434
0.0100859
0.010092858
0.010100197
0.010107808
0.010115584
0.010123428
0.010131254
0.010138991
0.010146578
0.010153961
0.010161096
0.010167942
0.010174465
0.010180635
0.010186428
0.010191818
0.010196783
0.010201302
0.010205355
0.010208915
0.010211961
0.010214487
0.010216492
0.010217983
0.010218967
0.010219447
0.010219418
0.010218866
0.010217771
0.010216112
0.010213866
0.010210997
0.010207461
0.010203209
0.010198192
0.010192368
0.010185671
0.010178001
0.010169206
0.010159094
0.01014746
0.010134118
0.010118853
0.010101189
0.010080948
0.010062189
0.010048004
0.010037245
0.0100288
0.010022036
0.010019978
0.010028267
0.010033441
0.029058407
0.018140256
0.015393764
0.012940039
0.011723545
0.011209497
0.010789689
0.010596428
0.010431042
0.010334092
0.010256357
0.010201359
0.010159352
0.010128109
0.010104727
0.010087297
0.010075776
0.010067143
0.010062231
0.010060306
0.010058806
0.010062335
0.010065781
0.010070444
0.010076127
0.010082624
0.010089753
0.010097357
0.010105297
0.010113457
0.010121728
0.010130005
0.010138193
0.010146206
0.010153977
0.01016145
0.010168579
0.010175328
0.010181667
0.010187574
0.010193033
0.01019803
0.010202557
0.010206601
0.010210156
0.010213212
0.010215756
0.010217774
0.010219263
0.010220229
0.010220683
0.010220637
0.010220099
0.01021907
0.010217539
0.010215488
0.010212897
0.010209742
0.010205991
0.010201598
0.010196512
0.010190685
0.010184075
0.010176625
0.01016824
0.01015878
0.010148054
0.010135848
0.010121953
0.010106189
0.010088288
0.010067976
0.01005113
0.010038404
0.010028969
0.010021708
0.01001577
0.010013892
0.010021149
0.010024874
0.026895943
0.018268543
0.014721929
0.012638605
0.011529708
0.011080332
0.010698386
0.010527504
0.010379388
0.01029278
0.010223959
0.010175529
0.010139222
0.010112768
0.010093637
0.010079838
0.010071183
0.010066136
0.010061886
0.01006459
0.010067156
0.010070782
0.010076112
0.0100825
0.01008972
0.010097569
0.010105872
0.01011447
0.010123219
0.010132
0.010140706
0.010149238
0.010157505
0.010165428
0.010172946
0.010180014
0.010186597
0.010192673
0.010198227
0.010203252
0.010207745
0.010211711
0.010215154
0.010218076
0.010220484
0.01022238
0.010223761
0.010224621
0.010224961
0.010224788
0.010224118
0.010222967
0.010221345
0.010219257
0.010216696
0.010213643
0.01021008
0.010205981
0.010201314
0.010196034
0.010190088
0.010183425
0.010176005
0.010167774
0.010158646
0.010148491
0.010137123
0.010124324
0.010109871
0.010093567
0.010075456
0.01005588
0.010040821
0.010029533
0.010021354
0.010015247
0.010010251
0.010008509
0.010014331
0.010016928
0.025192899
0.018355671
0.014172068
0.012362645
0.011355119
0.010963463
0.010617957
0.010466949
0.010335316
0.010258447
0.010198253
0.010156284
0.010125604
0.010103928
0.010089045
0.010079069
0.01007151
0.010071964
0.010072928
0.01007522
0.010079787
0.010085892
0.010093046
0.010101054
0.010109683
0.010118729
0.010128014
0.010137378
0.010146679
0.010155797
0.010164631
0.010173091
0.010181098
0.010188584
0.010195504
0.010201826
0.010207534
0.010212622
0.010217095
0.010220961
0.010224237
0.010226942
0.010229095
0.010230714
0.010231814
0.01023241
0.010232508
0.010232108
0.010231212
0.010229829
0.010227976
0.010225669
0.01022292
0.010219738
0.010216115
0.010212036
0.010207478
0.010202417
0.010196819
0.010190639
0.010183821
0.010176312
0.01016807
0.010159045
0.010149158
0.010138289
0.010126261
0.010112856
0.010097857
0.010081039
0.010062589
0.010044678
0.01003134
0.010021454
0.010014448
0.010009435
0.01000547
0.010003925
0.010008125
0.010010537
0.023563919
0.018430407
0.013678767
0.012112286
0.011199649
0.010858737
0.010547867
0.010415042
0.010299267
0.010231587
0.010179761
0.010144199
0.01011911
0.010102235
0.010091576
0.010085848
0.010084177
0.010084576
0.010087907
0.010093332
0.010100152
0.010108126
0.010116989
0.01012645
0.010136277
0.010146262
0.010156233
0.010166032
0.010175522
0.010184591
0.01019315
0.010201126
0.010208458
0.010215101
0.01022103
0.010226233
0.010230717
0.010234496
0.010237594
0.01024004
0.010241867
0.010243108
0.010243798
0.010243963
0.010243632
0.010242824
0.010241553
0.010239823
0.010237639
0.010235006
0.01023194
0.010228454
0.010224563
0.010220273
0.010215581
0.01021047
0.010204916
0.010198891
0.010192362
0.010185283
0.010177597
0.010169246
0.010160185
0.010150365
0.010139715
0.010128125
0.010115433
0.010101417
0.01008588
0.010068684
0.010049937
0.010034414
0.010022734
0.010014204
0.010008289
0.010004276
0.01000136
0.010000192
0.01000298
0.010004706
0.022142499
0.018431328
0.013262974
0.011886691
0.011062448
0.010766578
0.010488757
0.010372369
0.01027156
0.010212758
0.010169096
0.010139949
0.010120458
0.010108438
0.010102069
0.010100003
0.010101288
0.010105446
0.010111558
0.010119245
0.010128156
0.010137928
0.010148258
0.01015888
0.010169562
0.0101801
0.010190328
0.0102001
0.010209295
0.010217821
0.010225609
0.010232612
0.0102388
0.010244155
0.010248678
0.010252386
0.010255307
0.010257477
0.01025894
0.010259743
0.010259932
0.010259554
0.010258651
0.010257262
0.010255418
0.010253145
0.010250461
0.010247372
0.010243882
0.010239993
0.010235713
0.010231055
0.01022603
0.010220645
0.010214896
0.010208767
0.010202232
0.010195259
0.010187814
0.010179851
0.010171313
0.010162136
0.010152272
0.010141671
0.010130267
0.01011796
0.010104607
0.010089996
0.010073916
0.010056502
0.010038657
0.010025099
0.010015024
0.010007801
0.010002909
0.0099997759
0.0099978262
0.0099972244
0.0099990964
0.010000166
0.020872752
0.018263168
0.012877201
0.011684427
0.010942479
0.010686667
0.01044074
0.010339099
0.010252767
0.010202684
0.010167059
0.010144374
0.010130519
0.010123403
0.010121368
0.010123191
0.010127958
0.010134947
0.010143649
0.010153574
0.010164312
0.010175528
0.01018693
0.010198255
0.010209281
0.010219819
0.01022972
0.010238866
0.010247166
0.01025456
0.010261012
0.010266513
0.010271066
0.010274691
0.010277418
0.010279288
0.010280354
0.010280671
0.010280299
0.010279297
0.010277722
0.010275629
0.010273065
0.010270072
0.010266687
0.010262936
0.010258836
0.010254397
0.010249618
0.010244497
0.010239034
0.010233236
0.010227111
0.010220663
0.010213889
0.010206773
0.010199287
0.010191396
0.010183064
0.010174245
0.010164881
0.010154908
0.010144267
0.010132909
0.010120772
0.010107762
0.010093758
0.010078591
0.010062044
0.010044309
0.010028536
0.010016784
0.01000821
0.010002233
0.0099983183
0.0099959462
0.0099947899
0.0099949067
0.0099965516
0.009996948
0.019737798
0.017815125
0.012530035
0.01150474
0.010840228
0.010619536
0.010404098
0.010316127
0.010243665
0.010202323
0.010174661
0.010158513
0.010150341
0.010148165
0.010150448
0.010156033
0.010164053
0.010173852
0.010184854
0.010196601
0.010208703
0.010220824
0.010232684
0.010244042
0.010254703
0.010264511
0.010273355
0.010281162
0.010287887
0.010293514
0.010298053
0.010301535
0.010304003
0.01030551
0.010306115
0.010305883
0.010304884
0.010303186
0.01030086
0.01029797
0.010294579
0.010290743
0.010286511
0.010281926
0.010277021
0.010271823
0.010266348
0.010260601
0.010254581
0.01024828
0.010241689
0.010234807
0.010227635
0.010220176
0.010212424
0.010204365
0.010195972
0.010187205
0.010178025
0.010168386
0.010158233
0.0101475
0.01013612
0.010124038
0.010111199
0.010097517
0.010082878
0.010067173
0.010050389
0.010033055
0.010019577
0.010009478
0.010002276
0.0099974673
0.0099945015
0.0099928061
0.0099922104
0.0099930264
0.0099951943
0.009995399
0.018723751
0.017005868
0.012219851
0.0113467
0.010755413
0.010565548
0.010379492
0.0103044
0.010245373
0.010212889
0.010193165
0.010183609
0.010181122
0.010183831
0.010190304
0.010199443
0.010210405
0.010222536
0.010235293
0.01024822
0.010260942
0.01027315
0.010284601
0.010295098
0.010304501
0.010312713
0.01031968
0.010325389
0.010329854
0.010333113
0.010335221
0.01033625
0.010336278
0.010335386
0.010333655
0.010331165
0.010327994
0.01032422
0.010319912
0.010315136
0.010309953
0.010304415
0.010298569
0.010292452
0.010286096
0.010279522
0.010272744
0.010265763
0.010258575
0.010251167
0.010243522
0.010235629
0.010227482
0.010219076
0.010210407
0.010201461
0.010192211
0.010182619
0.010172638
0.010162224
0.010151324
0.010139874
0.0101278
0.010115038
0.010101535
0.010087222
0.010071999
0.010055787
0.010038822
0.010023355
0.010011754
0.010003174
0.0099972015
0.0099934547
0.0099914001
0.0099903554
0.0099901398
0.0099914316
0.0099940669
0.0099951652
0.017817047
0.016067435
0.011949336
0.011210287
0.010687628
0.010525736
0.010368011
0.010305419
0.010259381
0.010235889
0.010224047
0.010221045
0.01022411
0.01023147
0.01024177
0.010253957
0.010267213
0.010280902
0.010294507
0.010307607
0.010319878
0.010331072
0.010341016
0.010349595
0.010356745
0.010362451
0.010366734
0.010369647
0.010371263
0.010371671
0.010370967
0.010369254
0.010366633
0.010363203
0.010359054
0.010354274
0.010348941
0.010343128
0.010336901
0.01033032
0.010323437
0.010316298
0.010308942
0.0103014
0.010293696
0.010285849
0.010277865
0.010269746
0.01026148
0.010253052
0.010244439
0.01023562
0.010226579
0.010217305
0.010207788
0.010198017
0.010187969
0.010177605
0.010166879
0.010155739
0.010144137
0.010132015
0.010119298
0.010105908
0.010091788
0.010076888
0.010061147
0.010044627
0.010027961
0.010014956
0.010005057
0.0099978443
0.0099929633
0.0099901442
0.0099889181
0.0099885281
0.0099886557
0.0099903478
0.0099936904
0.0099963281
0.017007056
0.015301529
0.011719166
0.011095874
0.010637745
0.010501548
0.01037122
0.010320917
0.010287443
0.010272998
0.010268877
0.010272192
0.010280414
0.010291854
0.010305218
0.010319507
0.010333941
0.010347938
0.010361056
0.010372959
0.010383422
0.010392301
0.010399531
0.010405102
0.01040905
0.010411443
0.010412379
0.01041197
0.010410337
0.010407607
0.010403902
0.010399338
0.010394028
0.010388073
0.010381563
0.01037458
0.010367195
0.010359472
0.010351465
0.010343224
0.010334788
0.010326194
0.01031747
0.01030864
0.010299719
0.01029072
0.010281647
0.010272495
0.010263252
0.010253899
0.010244409
0.010234754
0.010224908
0.010214849
0.010204563
0.010194036
0.010183249
0.010172171
0.010160755
0.010148945
0.01013669
0.01012394
0.01011063
0.010096673
0.010081996
0.010066568
0.010050382
0.010033698
0.010018909
0.010007763
0.0099994184
0.0099934365
0.0099895289
0.0099874996
0.0099869567
0.0099871868
0.0099877805
0.0099898988
0.0099938101
0.0099970632
0.016283937
0.014616678
0.011524909
0.011004108
0.010606841
0.010494809
0.010390871
0.010352915
0.010331544
0.010326007
0.010329168
0.010338157
0.010350633
0.010364995
0.01038004
0.010394864
0.010408798
0.010421383
0.010432318
0.010441417
0.010448598
0.010453859
0.010457259
0.010458898
0.010458906
0.010457426
0.01045461
0.010450611
0.010445578
0.010439652
0.010432962
0.010425625
0.010417746
0.010409418
0.010400719
0.01039172
0.010382476
0.010373037
0.010363443
0.010353729
0.010343924
0.010334049
0.010324124
0.010314161
0.010304169
0.010294153
0.010284113
0.010274042
0.010263925
0.010253743
0.010243466
0.010233062
0.010222497
0.01021174
0.010200767
0.010189559
0.010178099
0.010166363
0.010154311
0.010141888
0.010129035
0.010115703
0.010101842
0.010087379
0.010072216
0.010056331
0.010039938
0.010023725
0.010011248
0.010001732
0.0099947456
0.009989866
0.0099868391
0.0099854908
0.0099854644
0.0099861426
0.0099872428
0.009989761
0.0099939659
0.0099977515
0.015640394
0.014025053
0.011365477
0.010935881
0.010596083
0.010507923
0.010429286
0.010403814
0.01039385
0.010396554
0.010405907
0.010419141
0.010434129
0.010449427
0.010464013
0.010477186
0.010488485
0.010497657
0.010504605
0.010509333
0.010511924
0.010512516
0.01051128
0.010508405
0.010504085
0.010498508
0.010491851
0.010484281
0.010475949
0.010466988
0.010457517
0.010447637
0.010437436
0.010426989
0.010416358
0.010405593
0.010394734
0.010383813
0.010372856
0.010361882
0.010350906
0.010339939
0.010328987
0.010318054
0.010307141
0.010296247
0.010285365
0.010274487
0.010263598
0.010252678
0.010241698
0.010230625
0.010219422
0.01020805
0.010196474
0.010184665
0.010172602
0.010160265
0.010147627
0.010134644
0.010121254
0.010107395
0.010093018
0.010078091
0.010062544
0.010046294
0.010029721
0.010015619
0.010004835
0.0099967567
0.0099909376
0.0099870254
0.0099847914
0.0099840459
0.0099844288
0.0099854281
0.0099869356
0.0099898708
0.0099942223
0.0099982803
0.015070316
0.013517781
0.011242344
0.010894055
0.010607406
0.010544332
0.010489429
0.010476064
0.010476003
0.01048518
0.010498481
0.010513397
0.010528134
0.010541558
0.010552968
0.010561977
0.010568416
0.010572288
0.010573718
0.010572889
0.010570025
0.010565366
0.010559153
0.01055162
0.010542981
0.010533434
0.010523149
0.010512279
0.010500954
0.010489286
0.01047737
0.010465282
0.010453088
0.010440837
0.010428572
0.010416324
0.010404116
0.010391962
0.010379874
0.010367856
0.010355911
0.010344038
0.010332232
0.01032049
0.010308804
0.010297167
0.010285567
0.010273994
0.01026243
0.010250858
0.010239251
0.010227579
0.010215806
0.010203889
0.010191787
0.010179459
0.010166873
0.010154003
0.01014083
0.010127327
0.010113451
0.010099133
0.010084298
0.01006891
0.010053028
0.010036837
0.010020919
0.010008873
0.009999583
0.0099927203
0.009987892
0.0099848057
0.0099832611
0.0099830402
0.0099837542
0.0099849702
0.0099867722
0.0099900537
0.009994517
0.0099986593
0.014572004
0.013087355
0.011157603
0.010883478
0.010644897
0.010607781
0.010573828
0.010570703
0.010577516
0.010589802
0.010603418
0.010616347
0.010627326
0.010635688
0.010641161
0.010643724
0.010643513
0.010640764
0.010635772
0.010628841
0.010620269
0.010610337
0.010599301
0.010587387
0.010574792
0.010561686
0.010548212
0.010534488
0.010520612
0.010506665
0.01049271
0.010478798
0.010464968
0.010451248
0.010437658
0.010424212
0.010410915
0.01039777
0.010384772
0.010371916
0.010359192
0.010346588
0.010334094
0.010321695
0.010309377
0.010297127
0.01028493
0.010272768
0.010260627
0.010248486
0.010236324
0.010224114
0.010211823
0.010199415
0.010186846
0.01017407
0.010161042
0.010147723
0.010134084
0.010120104
0.010105766
0.010091038
0.010075847
0.010060097
0.010043777
0.010027439
0.010013876
0.01000332
0.0099953348
0.0099895024
0.0099855076
0.0099831095
0.0099821318
0.0099823415
0.0099833428
0.0099847641
0.009986814
0.0099903284
0.0099948835
0.0099989567
0.014150481
0.012732168
0.011114251
0.010908742
0.010735631
0.010700347
0.010682371
0.010685268
0.010694026
0.010704549
0.01071388
0.010720718
0.010724467
0.010724995
0.010722444
0.010717106
0.010709337
0.010699511
0.010687995
0.010675125
0.010661198
0.010646472
0.010631165
0.01061546
0.010599507
0.010583431
0.010567331
0.010551284
0.010535353
0.010519584
0.010504011
0.010488658
0.010473542
0.01045867
0.010444045
0.010429664
0.010415519
0.0104016
0.010387894
0.010374383
0.010361051
0.010347878
0.010334843
0.010321927
0.01030911
0.010296371
0.01028369
0.010271048
0.010258425
0.010245802
0.010233156
0.010220467
0.010207706
0.010194844
0.010181843
0.010168663
0.010155255
0.01014157
0.01012756
0.010113185
0.010098422
0.010083266
0.010067725
0.010051825
0.010035664
0.010019888
0.010008083
0.0099988536
0.0099919433
0.0099869758
0.0099836775
0.0099818481
0.009981317
0.0099818412
0.0099830738
0.0099847239
0.0099870425
0.0099906901
0.0099951925
0.0099990633
0.013816781
0.012453129
0.011116418
0.010968442
0.010842211
0.010819712
0.010809853
0.010812299
0.01081676
0.010820137
0.010820735
0.010818051
0.010812114
0.010803218
0.01079178
0.010778248
0.010763052
0.010746581
0.010729169
0.010711102
0.010692616
0.010673901
0.010655109
0.010636362
0.010617752
0.010599352
0.010581216
0.010563382
0.010545879
0.010528722
0.01051192
0.010495476
0.010479387
0.010463644
0.010448235
0.010433147
0.010418361
0.010403857
0.010389613
0.010375606
0.010361813
0.010348207
0.010334762
0.010321453
0.010308255
0.010295142
0.010282089
0.010269072
0.010256068
0.010243054
0.010230009
0.01021691
0.010203733
0.010190455
0.010177047
0.010163478
0.010149709
0.010135697
0.010121391
0.010106737
0.010091682
0.010076177
0.010060207
0.01004387
0.010027702
0.010014058
0.010003453
0.0099953355
0.0099893012
0.0099850352
0.0099822975
0.0099809222
0.0099807439
0.0099814859
0.0099828553
0.009984704
0.0099872999
0.0099911082
0.0099955743
0.0099992323
0.013594378
0.012252119
0.011166432
0.011068065
0.010976204
0.010955616
0.010945001
0.010939934
0.01093422
0.010926098
0.010914999
0.010901046
0.010884648
0.010866285
0.010846431
0.010825509
0.010803881
0.010781843
0.010759632
0.010737434
0.010715392
0.010693617
0.010672188
0.010651162
0.010630579
0.010610466
0.010590836
0.010571696
0.010553045
0.010534876
0.010517178
0.010499937
0.010483136
0.010466754
0.010450769
0.010435159
0.010419898
0.01040496
0.010390317
0.010375942
0.010361806
0.010347879
0.010334133
0.010320536
0.01030706
0.010293675
0.010280352
0.010267064
0.010253782
0.01024048
0.010227132
0.010213714
0.010200202
0.010186572
0.010172799
0.01015886
0.010144728
0.010130372
0.010115758
0.010100848
0.010085598
0.010069965
0.010053929
0.010037599
0.010021672
0.010009482
0.0099999056
0.00999266
0.0099873345
0.009983632
0.0099813269
0.0099802629
0.0099803017
0.0099812646
0.0099826798
0.009984642
0.0099873982
0.0099912905
0.0099957489
0.0099992704
0.01343058
0.012129209
0.011265929
0.01119396
0.011120393
0.011094189
0.011073588
0.011055148
0.011035438
0.011013841
0.010990427
0.010965556
0.010939663
0.010913151
0.010886359
0.01085956
0.010832963
0.010806727
0.010780965
0.010755759
0.010731163
0.010707209
0.010683915
0.010661288
0.010639323
0.010618012
0.010597338
0.010577284
0.010557827
0.010538945
0.010520613
0.010502804
0.010485491
0.010468647
0.010452243
0.010436249
0.010420637
0.010405376
0.010390435
0.010375784
0.010361392
0.010347227
0.010333257
0.010319451
0.010305777
0.010292203
0.010278697
0.010265228
0.010251765
0.010238276
0.010224733
0.010211106
0.010197368
0.010183489
0.010169446
0.010155212
0.010140763
0.010126074
0.01011112
0.010095877
0.01008032
0.010064432
0.01004825
0.010032065
0.010017305
0.010006059
0.0099972919
0.0099907094
0.0099859407
0.0099827052
0.0099807827
0.009980007
0.0099799086
0.0099811563
0.0099825939
0.0099846109
0.0099873716
0.0099911172
0.0099954018
0.0099989813
0.013358333
0.01208297
0.011416114
0.011329258
0.011258487
0.011217313
0.011181065
0.011146849
0.011112866
0.011078846
0.011044886
0.011011192
0.010977971
0.010945396
0.010913593
0.010882647
0.010852612
0.010823513
0.010795358
0.010768143
0.010741849
0.010716454
0.010691929
0.010668243
0.010645363
0.010623253
0.010601879
0.010581206
0.0105612
0.010541825
0.010523048
0.010504836
0.010487154
0.010469972
0.010453255
0.010436972
0.01042109
0.010405578
0.010390404
0.010375535
0.010360939
0.010346584
0.010332438
0.010318469
0.010304645
0.010290932
0.010277299
0.010263713
0.010250141
0.01023655
0.010222906
0.010209179
0.010195334
0.01018134
0.010167165
0.010152779
0.010138151
0.010123254
0.010108061
0.010092551
0.010076708
0.010060541
0.01004415
0.010028026
0.010014316
0.010003714
0.0099955168
0.0099893894
0.0099849988
0.0099820842
0.0099804345
0.0099798692
0.0099798969
0.009981116
0.0099826545
0.009984745
0.0099875124
0.0099910663
0.0099950756
0.0099986643
0.013348889
0.012055491
0.011555625
0.011450156
0.011368195
0.011309765
0.011257823
0.011209976
0.011164687
0.011121454
0.011080049
0.011040359
0.011002306
0.010965824
0.010930851
0.010897318
0.010865159
0.010834306
0.010804694
0.010776257
0.010748934
0.010722663
0.010697388
0.010673052
0.010649605
0.010626997
0.01060518
0.010584109
0.010563743
0.010544039
0.010524959
0.010506466
0.010488521
0.010471092
0.010454141
0.010437636
0.010421544
0.010405831
0.010390465
0.010375414
0.010360646
0.010346129
0.010331831
0.010317721
0.010303767
0.010289937
0.010276201
0.010262525
0.010248877
0.010235226
0.010221538
0.010207781
0.01019392
0.010179921
0.010165749
0.01015137
0.010136747
0.010121845
0.010106627
0.010091061
0.010075121
0.010058808
0.010042243
0.010026037
0.010012835
0.010002563
0.0099946574
0.009988767
0.009984569
0.00998181
0.0099802921
0.0099798114
0.0099800814
0.0099811683
0.0099827839
0.0099849371
0.0099876878
0.0099910562
0.0099948116
0.0099984175
0.013408046
0.012074284
0.011655213
0.011533426
0.011438884
0.011366768
0.011303772
0.011247056
0.011194796
0.011146104
0.011100415
0.011057349
0.011016619
0.010978
0.010941305
0.010906376
0.010873073
0.010841276
0.010810877
0.010781778
0.010753893
0.01072714
0.010701446
0.010676744
0.010652972
0.010630072
0.010607991
0.010586677
0.010566085
0.010546169
0.010526889
0.010508204
0.010490075
0.010472467
0.010455342
0.010438668
0.010422409
0.010406533
0.010391007
0.010375799
0.010360877
0.010346211
0.010331768
0.010317518
0.010303431
0.010289476
0.010275622
0.010261839
0.010248097
0.010234364
0.01022061
0.010206805
0.010192917
0.010178914
0.010164764
0.010150437
0.010135897
0.010121114
0.010106053
0.010090683
0.010074979
0.010058935
0.010042651
0.010026643
0.010013191
0.01000282
0.0099948319
0.0099888944
0.0099846731
0.0099819018
0.0099803553
0.0099798456
0.0099801908
0.0099812489
0.009982902
0.0099850989
0.0099878284
0.009991051
0.0099946155
0.0099982508
0.01350473
0.012117849
0.011704278
0.011573645
0.011470952
0.011392691
0.011324896
0.011264681
0.011209778
0.011159094
0.01111188
0.011067633
0.011025977
0.010986619
0.010949327
0.010913905
0.01088019
0.010848041
0.010817335
0.010787963
0.010759831
0.010732851
0.010706944
0.010682041
0.010658076
0.010634989
0.010612724
0.01059123
0.010570459
0.010550366
0.010530909
0.010512046
0.010493739
0.010475951
0.010458646
0.010441791
0.01042535
0.010409291
0.010393581
0.010378188
0.010363081
0.010348229
0.010333601
0.010319165
0.010304892
0.010290752
0.010276713
0.010262746
0.010248821
0.010234907
0.010220974
0.010206992
0.010192928
0.010178754
0.010164437
0.010149946
0.01013525
0.010120316
0.010105112
0.01008961
0.010073784
0.010057637
0.010041291
0.010025355
0.010012483
0.010002393
0.0099946151
0.0099888045
0.0099846609
0.0099819346
0.0099804102
0.0099798954
0.0099801751
0.0099812603
0.0099829177
0.0099851308
0.0099878454
0.0099909962
0.0099944769
0.0099981543
92.430452
453.79918
141.50467
12.296343
0.27185591
0.021612319
0.02062048
0.020009898
0.019325698
0.018147548
0.01692769
0.015861108
0.015009349
0.014446785
0.014048283
0.013675864
0.013310235
0.012981353
0.012703088
0.012470076
0.012272235
0.012101749
0.011953364
0.011823257
0.011708398
0.011606314
0.011515018
0.011432921
0.011358775
0.011291595