/*--------------------------------*- C++ -*----------------------------------*\
| =========                 |                                                 |
| \\      /  F ield         | OpenFOAM: The Open Source CFD Toolbox           |
|  \\    /   O peration     | Version:  2512                                  |
|   \\  /    A nd           | Website:  www.openfoam.com                      |
|    \\/     M anipulation  |                                                 |
\*---------------------------------------------------------------------------*/
FoamFile
{
    version     2.0;
    format      ascii;
    arch        "LSB;label=32;scalar=64";
    class       volScalarField;
    location    "0.149";
    object      Ma;
}
// * * * * * * * * * * * * * * * * * * * * * * * * * * * * * * * * * * * * * //

dimensions      [0 0 0 0 0 0 0];

internalField   nonuniform List<scalar> 
16000
(
0.62568053
0.74341671
0.69814505
0.72328606
0.70785864
0.71521064
0.70934361
0.71105771
0.70837443
0.70802244
0.70640503
0.7053184
0.70392544
0.70257515
0.70113536
0.69964897
0.69810239
0.69649821
0.6948351
0.69311273
0.69133077
0.68948913
0.68758794
0.6856276
0.68360882
0.68153263
0.67940042
0.67721396
0.67497542
0.67268738
0.67035286
0.66797531
0.66555861
0.66310706
0.66062539
0.65811867
0.65559234
0.65305215
0.65050407
0.64795427
0.64540903
0.64287468
0.64035751
0.63786371
0.63539925
0.63296987
0.63058096
0.62823752
0.62594411
0.62370479
0.6215231
0.61940204
0.61734403
0.61535092
0.61342399
0.61156389
0.6097707
0.60804392
0.60638248
0.60478468
0.60324819
0.60177039
0.60034836
0.59897842
0.59765615
0.59637616
0.59513225
0.59391767
0.5927256
0.59154921
0.59038123
0.58921344
0.58803737
0.58684699
0.58564031
0.58442366
0.58308399
0.58216284
0.57992778
0.58010943
0.63013722
0.74861937
0.70144737
0.72793942
0.71166179
0.71950635
0.71316773
0.71501633
0.71214136
0.71172056
0.71001492
0.70881117
0.70732753
0.70586173
0.70431328
0.70270952
0.70104328
0.69931502
0.6975242
0.69567048
0.69375383
0.6917744
0.68973269
0.68762948
0.68546593
0.68324355
0.6809643
0.67863054
0.67624507
0.67381118
0.6713326
0.66881354
0.66625867
0.66367308
0.66106227
0.65843211
0.65578877
0.6531387
0.65048849
0.64784486
0.64521454
0.64260419
0.64002033
0.63746923
0.63495684
0.63248871
0.63006994
0.62770515
0.62539836
0.62315305
0.62097209
0.61885775
0.61681172
0.61483508
0.61292835
0.61109147
0.6093238
0.6076242
0.605991
0.60442199
0.60291437
0.60146505
0.60007077
0.59872764
0.5974311
0.59617571
0.59495519
0.59376266
0.5925911
0.59143356
0.59028272
0.58913025
0.58796749
0.58678841
0.58558945
0.58435964
0.58311206
0.5819413
0.58018458
0.57979912
0.63433198
0.75338052
0.705001
0.73196253
0.71525585
0.72318741
0.71670365
0.71842811
0.71550566
0.714922
0.71315071
0.71180618
0.7102184
0.70862435
0.70695067
0.70521492
0.70341289
0.70154465
0.69960996
0.69760879
0.69554144
0.69340845
0.69121075
0.68894963
0.6866268
0.68424437
0.68180499
0.67931173
0.6767682
0.67417854
0.67154737
0.66887983
0.66618154
0.66345853
0.66071726
0.65796449
0.65520724
0.65245271
0.64970817
0.64698088
0.64427798
0.64160639
0.63897273
0.6363832
0.63384354
0.63135894
0.62893398
0.62657262
0.62427816
0.62205323
0.6198998
0.61781922
0.61581218
0.61387885
0.61201878
0.61023106
0.60851421
0.60686632
0.60528504
0.60376757
0.60231056
0.60091047
0.59956363
0.59826591
0.59701257
0.59579813
0.59461627
0.59346009
0.59232249
0.59119647
0.59007473
0.58894908
0.58781097
0.58665373
0.58547176
0.58425991
0.58304328
0.5817885
0.58026603
0.5795794
0.6381311
0.75770495
0.70802662
0.73541856
0.71835701
0.72640198
0.71975497
0.72134758
0.71836319
0.71760207
0.7157507
0.71425082
0.71254203
0.71080471
0.70898952
0.70710612
0.70515273
0.70312925
0.70103577
0.69887262
0.69664045
0.69434027
0.69197352
0.68954206
0.68704827
0.68449504
0.68188581
0.67922461
0.67651603
0.67376523
0.67097794
0.66816042
0.6653194
0.662462
0.65959574
0.65672835
0.65386772
0.65102179
0.64819845
0.64540537
0.64264996
0.63993918
0.63727953
0.6346769
0.63213653
0.62966295
0.62725994
0.62493053
0.62267701
0.62050092
0.61840312
0.6163838
0.61444256
0.61257844
0.61079
0.60907532
0.60743209
0.60585758
0.60434875
0.60290218
0.60151405
0.60018036
0.59889708
0.59765983
0.59646378
0.59530344
0.59417253
0.59306416
0.59197122
0.59088669
0.58980339
0.58871335
0.58760806
0.5864799
0.58532296
0.5841386
0.58294015
0.5816646
0.58029148
0.57939756
0.64153397
0.76153533
0.7107726
0.73834984
0.72084476
0.72904334
0.72228798
0.72368594
0.72065847
0.71968569
0.71774526
0.71607253
0.71422475
0.71232914
0.71035582
0.70830913
0.70618854
0.70399401
0.70172593
0.69938496
0.69697222
0.69448929
0.69193827
0.68932184
0.68664326
0.68390645
0.68111598
0.67827704
0.67539551
0.67247787
0.66953117
0.66656301
0.66358141
0.66059475
0.65761165
0.65464084
0.65169108
0.64877095
0.64588878
0.64305247
0.64026941
0.63754636
0.63488935
0.63230361
0.62979352
0.62736261
0.62501352
0.62274804
0.62056715
0.61847106
0.61645927
0.61453067
0.61268358
0.61091586
0.60922495
0.60760796
0.60606166
0.60458255
0.6031669
0.60181075
0.60050981
0.59925969
0.59805605
0.59689433
0.59576964
0.59467652
0.59360881
0.59255973
0.59152224
0.59048939
0.58945418
0.58840897
0.58734522
0.58625461
0.58513226
0.58398237
0.58280481
0.58154503
0.58026329
0.5792493
0.64450449
0.76479753
0.71306159
0.74080312
0.72301463
0.7310439
0.72416889
0.72537948
0.72229993
0.72110936
0.71906916
0.7172131
0.71521031
0.71314341
0.71099635
0.70877038
0.70646562
0.70408235
0.7016214
0.69908405
0.69647219
0.69378825
0.69103537
0.68821737
0.68533879
0.68240491
0.67942176
0.67639608
0.67333532
0.67024755
0.66714142
0.66402603
0.66091084
0.65780552
0.65471982
0.65166339
0.64864566
0.64567564
0.64276181
0.63991196
0.63713308
0.63443127
0.63181167
0.6292784
0.62683458
0.6244823
0.62222271
0.62005601
0.61798161
0.61599814
0.6141036
0.61229542
0.61057061
0.60892578
0.60735727
0.60586122
0.60443356
0.60307008
0.60176646
0.60051824
0.5993208
0.59816944
0.59705959
0.59598659
0.59494555
0.59393112
0.59293735
0.59195766
0.59098514
0.59001298
0.58903447
0.58804229
0.58702788
0.58598269
0.58490308
0.58379315
0.58264431
0.58141881
0.58020811
0.579102
0.64703067
0.76748382
0.7149105
0.74275575
0.72471732
0.73238187
0.7255787
0.72641144
0.7233496
0.72186114
0.71970293
0.71765152
0.71547261
0.71321495
0.71087158
0.70844284
0.70592951
0.70333266
0.70065398
0.69789575
0.69506099
0.69215345
0.68917766
0.68613899
0.68304364
0.67989867
0.67671193
0.67349207
0.67024841
0.66699089
0.66372992
0.66047626
0.6572408
0.65403448
0.65086799
0.64775168
0.64469534
0.64170799
0.63879781
0.63597195
0.63323647
0.63059626
0.62805501
0.62561523
0.62327825
0.62104434
0.61891276
0.61688186
0.61494921
0.61311173
0.6113658
0.60970739
0.60813214
0.60663551
0.6052128
0.60385927
0.60257014
0.6013406
0.60016589
0.59904118
0.59796162
0.59692233
0.59591864
0.59494586
0.59399919
0.59307347
0.59216304
0.59126159
0.59036247
0.58945909
0.58854505
0.58761339
0.58665561
0.5856634
0.58463401
0.58356935
0.5824571
0.58128026
0.58012924
0.57895533
0.64915021
0.76962054
0.71635175
0.74424482
0.72600223
0.73337221
0.72644621
0.72719999
0.72368629
0.72195086
0.71964001
0.71736631
0.71497604
0.71249521
0.70992217
0.70725765
0.70450323
0.70166106
0.69873399
0.69572566
0.6926406
0.68948423
0.68626294
0.68298408
0.67965598
0.67628786
0.67288985
0.6694728
0.66604823
0.66262811
0.65922472
0.65585044
0.65251751
0.64923785
0.64602277
0.64288285
0.63982765
0.63686565
0.634004
0.63124855
0.62860371
0.62607248
0.62365649
0.62135605
0.61917027
0.61709717
0.61513381
0.6132765
0.61152084
0.609862
0.60829475
0.60681363
0.60541308
0.60408751
0.60283135
0.60163917
0.60050563
0.59942553
0.59839381
0.59740546
0.59645553
0.59553913
0.5946516
0.59378832
0.59294467
0.59211578
0.59129632
0.59048039
0.58966164
0.58883381
0.58799083
0.58712607
0.5862313
0.5852989
0.58432621
0.58331157
0.58224317
0.58112606
0.58003065
0.57880256
0.65092271
0.7712271
0.71732263
0.74525627
0.72659137
0.73328568
0.72649481
0.72644179
0.72338401
0.72131878
0.71880597
0.71627431
0.7136308
0.710888
0.70804669
0.7051086
0.70207635
0.69895343
0.69574428
0.69245434
0.68909017
0.68565941
0.68217088
0.67863447
0.67506115
0.67146282
0.66785226
0.66424287
0.66064851
0.65708328
0.65356124
0.65009616
0.64670126
0.64338891
0.64017042
0.63705581
0.63405364
0.63117089
0.62841286
0.62578318
0.62328379
0.6209151
0.61867602
0.61656416
0.61457599
0.61270701
0.61095197
0.609305
0.60775982
0.60630989
0.60494855
0.60366913
0.60246505
0.6013299
0.60025751
0.59924197
0.59827762
0.59735909
0.5964812
0.59563897
0.59482752
0.59404206
0.5932781
0.59253121
0.59179702
0.59107102
0.59034831
0.58962344
0.58889049
0.58814356
0.58737694
0.58658429
0.58575798
0.58489133
0.58398081
0.58302047
0.58200308
0.58095474
0.57991179
0.57864282
0.65233389
0.77226954
0.71775008
0.74553021
0.72646071
0.73275723
0.72603117
0.72553146
0.72225567
0.7198438
0.71708011
0.71425448
0.71131504
0.70826854
0.7051172
0.70186439
0.69851439
0.69507268
0.69154595
0.68794216
0.68427063
0.68054198
0.67676815
0.67296225
0.66913847
0.66531188
0.66149823
0.65771364
0.65397434
0.65029636
0.64669517
0.64318535
0.63978032
0.63649203
0.63333072
0.63030477
0.62742055
0.62468244
0.6220928
0.61965207
0.61735893
0.61521046
0.61320237
0.61132921
0.6095846
0.60796148
0.60645227
0.60504913
0.60374407
0.60252913
0.60139649
0.60033858
0.59934813
0.59841824
0.5975424
0.59671451
0.59592887
0.59518013
0.59446324
0.59377343
0.59310603
0.59245657
0.59182079
0.59119459
0.59057391
0.58995466
0.58933244
0.58870232
0.58805889
0.58739668
0.58671027
0.58599364
0.5852401
0.58444405
0.58359999
0.58269769
0.58173812
0.5807651
0.579772
0.57847615
0.653319
0.77263697
0.71756061
0.74428972
0.72558961
0.73128535
0.72469902
0.72357572
0.72021062
0.7174164
0.71434412
0.71117909
0.70789421
0.70449541
0.70098638
0.69737279
0.6936614
0.68986048
0.68597992
0.68203112
0.67802712
0.67398239
0.66991283
0.66583546
0.66176824
0.65772973
0.65373881
0.64981421
0.64597416
0.64223597
0.63861564
0.63512747
0.63178378
0.62859466
0.62556779
0.62270843
0.62001938
0.61750112
0.61515197
0.61296832
0.61094489
0.60907503
0.60735096
0.60576411
0.60430536
0.60296524
0.6017342
0.60060275
0.59956159
0.59860176
0.5977147
0.59689234
0.59612711
0.59541196
0.59474037
0.59410638
0.59350447
0.59292958
0.59237699
0.59184227
0.59132119
0.59080966
0.59030383
0.58979996
0.58929441
0.58878356
0.58826351
0.58772992
0.587178
0.5866027
0.58599883
0.58536078
0.58468314
0.58396124
0.58318664
0.58234573
0.58145012
0.58055562
0.57960957
0.57830424
0.65379629
0.77218641
0.71665045
0.74246433
0.72417252
0.7289521
0.72243207
0.72071327
0.71711492
0.71390138
0.71045551
0.70689572
0.70320841
0.6994015
0.69548109
0.69145607
0.68733683
0.68313568
0.67886691
0.67454661
0.67019264
0.66582434
0.66146237
0.65712825
0.65284402
0.64863179
0.64451318
0.64050889
0.63663809
0.63291803
0.62936357
0.6259869
0.62279729
0.61980101
0.61700135
0.61439873
0.61199097
0.60977349
0.60773973
0.60588146
0.60418917
0.60265239
0.60126004
0.60000074
0.598863
0.59783549
0.59690719
0.59606753
0.59530644
0.59461449
0.59398287
0.59340347
0.59286882
0.59237209
0.59190711
0.59146828
0.59105055
0.59064932
0.59026041
0.58987988
0.58950405
0.58912936
0.58875242
0.58836997
0.5879788
0.58757578
0.58715756
0.58672044
0.58626026
0.58577243
0.58525193
0.58469368
0.58409376
0.58344802
0.58274459
0.58196824
0.58114229
0.58032629
0.57942246
0.57812832
0.65371524
0.7708498
0.7148967
0.73983191
0.72181148
0.72558536
0.71912389
0.71672538
0.7128241
0.70913878
0.70524538
0.70122345
0.69706706
0.69278799
0.6883964
0.68390587
0.67933207
0.67469297
0.67000879
0.66530167
0.66059548
0.65591538
0.65128735
0.64673764
0.64229215
0.63797576
0.63381168
0.6298208
0.62602118
0.62242756
0.61905112
0.61589933
0.61297594
0.6102812
0.60781211
0.6055628
0.60352498
0.60168836
0.60004118
0.5985706
0.59726312
0.59610494
0.59508228
0.5941816
0.59338981
0.59269443
0.59208371
0.59154664
0.59107304
0.59065358
0.5902797
0.5899437
0.5896386
0.58935815
0.58909678
0.58884952
0.58861197
0.5883802
0.58815066
0.58792007
0.58768535
0.58744355
0.58719186
0.5869275
0.58664775
0.58634997
0.58603135
0.58568887
0.585319
0.5849176
0.58447984
0.58400136
0.58347964
0.5829104
0.58227856
0.58156998
0.58081922
0.58007927
0.57920936
0.57795161
0.65305492
0.76852432
0.71223861
0.73614305
0.71843081
0.72108982
0.7146009
0.71147922
0.70715785
0.70292968
0.69850236
0.69393732
0.68923489
0.68441258
0.67948686
0.67447812
0.66940933
0.66430604
0.65919604
0.65410896
0.64907568
0.64412765
0.63929617
0.63461144
0.63010177
0.62579269
0.62170621
0.61786029
0.61426839
0.61093932
0.60787726
0.60508202
0.6025494
0.60027168
0.59823824
0.5964361
0.59485058
0.59346581
0.59226526
0.59123216
0.5903499
0.58960231
0.58897385
0.58844985
0.58801653
0.58766115
0.58737199
0.58713836
0.58695058
0.58679993
0.58667861
0.5865797
0.58649706
0.58642527
0.58635961
0.58629591
0.58623058
0.58616046
0.58608273
0.58599484
0.58589436
0.58577906
0.58564666
0.58549496
0.58532172
0.58512477
0.58490186
0.58465058
0.58436807
0.58405058
0.58369365
0.58329374
0.58284936
0.58235529
0.58179429
0.58115673
0.58048614
0.57981789
0.57897269
0.57777484
0.65174263
0.76502466
0.70863636
0.73125424
0.71386291
0.71527831
0.70866186
0.70474643
0.69987926
0.69501489
0.68995377
0.68475262
0.67942016
0.67398209
0.66846402
0.66289574
0.65730984
0.65174148
0.6462277
0.64080658
0.63551629
0.63039389
0.62547425
0.62078881
0.61636467
0.61222374
0.60838223
0.60485046
0.6016329
0.59872851
0.59613128
0.5938309
0.59181355
0.59006269
0.58855982
0.58728519
0.58621846
0.5853392
0.58462736
0.58406357
0.58362944
0.58330769
0.58308231
0.58293854
0.58286297
0.58284343
0.58286902
0.58293
0.58301772
0.58312457
0.58324385
0.58336973
0.58349713
0.5836217
0.58373967
0.58384782
0.58394343
0.58402417
0.58408801
0.58413315
0.58415786
0.58416059
0.58413968
0.58409345
0.5840202
0.58391819
0.58378567
0.58362083
0.58342138
0.58318403
0.58290488
0.58258132
0.58221214
0.58179038
0.58129859
0.58073514
0.58014854
0.57954593
0.57871862
0.57759793
0.64971726
0.76010497
0.70418392
0.72499116
0.70793131
0.70793366
0.70104032
0.69623875
0.69067563
0.68505816
0.67925113
0.67331498
0.66727054
0.66115466
0.65500535
0.64886472
0.64277761
0.63679064
0.63095091
0.62530445
0.61989467
0.61476076
0.6099363
0.6054482
0.60131604
0.59755174
0.59415977
0.59113762
0.58847656
0.5861626
0.58417757
0.58250011
0.58110675
0.57997277
0.57907301
0.57838249
0.57787697
0.57753329
0.57732965
0.57724583
0.57726319
0.5773648
0.57753535
0.57776114
0.57802994
0.57833099
0.57865479
0.57899306
0.57933861
0.57968523
0.58002757
0.58036109
0.58068193
0.58098685
0.58127317
0.58153863
0.58178141
0.58200002
0.58219322
0.58235992
0.58249914
0.58260993
0.58269128
0.58274206
0.58276103
0.5827469
0.5826984
0.58261419
0.58249245
0.58233042
0.58212509
0.58187472
0.58157749
0.58122415
0.58079935
0.58031246
0.57981233
0.57926916
0.57845534
0.57742638
0.64691671
0.75339756
0.69856531
0.71709775
0.70031776
0.69872285
0.69136048
0.68555091
0.67912909
0.67262881
0.66596317
0.65920172
0.65238238
0.64555751
0.63878163
0.63211255
0.6256092
0.61932957
0.61332846
0.60765529
0.60235214
0.59745232
0.59297945
0.58894717
0.58535942
0.58221122
0.5794898
0.57717595
0.57524546
0.57367056
0.5724212
0.57146625
0.57077446
0.57031523
0.57005922
0.56997874
0.57004804
0.57024347
0.57054352
0.57092882
0.57138205
0.57188788
0.57243278
0.57300494
0.57359406
0.57419126
0.57478893
0.57538055
0.5759606
0.57652447
0.57706829
0.57758887
0.5780836
0.5785504
0.57898763
0.57939402
0.5797686
0.58011069
0.58041976
0.58069546
0.58093745
0.5811454
0.58131889
0.58145731
0.58155992
0.58162585
0.58165423
0.58164408
0.58159395
0.58150173
0.5813655
0.58118428
0.58095485
0.58066566
0.58030553
0.57989602
0.57948239
0.57899516
0.57819768
0.57725765
0.64322779
0.7443551
0.69133634
0.70714416
0.69058377
0.68717899
0.67911967
0.67216528
0.6647202
0.65720819
0.64958595
0.64193881
0.63432899
0.62683031
0.61951743
0.61246467
0.60574234
0.59941366
0.59353207
0.58813914
0.58326346
0.57892031
0.57511226
0.57183035
0.56905579
0.56676191
0.56491616
0.56348207
0.56242093
0.56169334
0.56126033
0.56108436
0.56112988
0.56136385
0.56175595
0.56227865
0.56290725
0.56361979
0.56439685
0.56522143
0.56607874
0.56695598
0.56784218
0.56872795
0.56960537
0.57046774
0.57130951
0.57212608
0.5729137
0.57366935
0.57439063
0.57507571
0.57572319
0.57633207
0.57690171
0.57743174
0.577922
0.57837254
0.57878349
0.57915513
0.57948772
0.5797815
0.58003657
0.58025286
0.58043007
0.58056779
0.58066547
0.58072239
0.58073737
0.58070903
0.58063663
0.58051967
0.58035318
0.58012415
0.57982695
0.57949342
0.57916106
0.57872664
0.57795671
0.57708786
0.63840257
0.7327643
0.68197096
0.69456442
0.6781427
0.67272844
0.66370194
0.65544791
0.64682159
0.63818897
0.62955844
0.6210405
0.61272836
0.60471967
0.59710614
0.58997012
0.58338043
0.57738958
0.57203228
0.56732522
0.56326816
0.55984582
0.55703045
0.5547847
0.55306441
0.55182128
0.55100514
0.55056584
0.55045469
0.55062552
0.55103535
0.55164483
0.55241837
0.55332417
0.55433408
0.55542339
0.5565706
0.55775712
0.55896699
0.5601866
0.56140443
0.56261079
0.5637976
0.56495819
0.5660871
0.56717993
0.56823319
0.56924415
0.57021076
0.57113152
0.57200544
0.57283189
0.5736106
0.57434157
0.57502504
0.57566143
0.57625131
0.57679536
0.57729432
0.57774896
0.57816011
0.57852846
0.57885462
0.57913898
0.57938171
0.57958281
0.57974206
0.5798589
0.57993241
0.57996193
0.57994774
0.57988938
0.57978042
0.57960808
0.5793729
0.57911223
0.57885043
0.57846039
0.57772807
0.57694559
0.63206771
0.71976356
0.66997061
0.67873573
0.66225689
0.65463481
0.64432522
0.63460355
0.62468045
0.61490104
0.60533707
0.59612913
0.58739718
0.57925104
0.57178079
0.56505374
0.55911224
0.55397387
0.54963321
0.54606506
0.54322832
0.5410702
0.53953025
0.53854402
0.53804604
0.53797222
0.53826154
0.53885721
0.53970734
0.54076523
0.54198938
0.5433433
0.54479524
0.54631777
0.54788738
0.54948408
0.55109096
0.55269386
0.55428098
0.55584258
0.55737069
0.55885888
0.56030202
0.56169609
0.56303805
0.56432563
0.56555726
0.56673194
0.56784917
0.5689088
0.56991107
0.57085643
0.57174559
0.5725794
0.57335887
0.57408511
0.57475929
0.57538263
0.57595637
0.57648174
0.57695997
0.57739219
0.57777939
0.57812241
0.57842185
0.57867812
0.57889128
0.57906097
0.5791866
0.57926812
0.57930639
0.57930053
0.57924328
0.57912419
0.57895031
0.57875901
0.57855601
0.57819953
0.57751048
0.57683337
0.62386761
0.70273448
0.65452282
0.65877425
0.6418814
0.63184817
0.61996838
0.60868555
0.59750798
0.58677328
0.57661139
0.56717776
0.55859143
0.55094064
0.5442775
0.5386194
0.53395204
0.53023464
0.527406
0.52539086
0.52410568
0.52346371
0.52337896
0.52376913
0.5245576
0.52567453
0.52705744
0.52865121
0.53040781
0.53228585
0.53424994
0.53627011
0.53832114
0.54038198
0.54243518
0.5444664
0.54646394
0.54841837
0.55032219
0.55216951
0.55395581
0.55567773
0.55733287
0.55891964
0.56043714
0.56188502
0.56326337
0.5645727
0.56581379
0.56698771
0.56809567
0.56913909
0.57011945
0.57103834
0.57189741
0.57269831
0.57344273
0.57413232
0.57476873
0.57535357
0.57588838
0.57637462
0.57681363
0.57720659
0.5775545
0.57785815
0.57811788
0.57833362
0.5785052
0.57863313
0.57871825
0.57875883
0.57874752
0.57867787
0.57856323
0.57843701
0.57828396
0.57795381
0.57731302
0.57676123
0.61317313
0.68074742
0.63421138
0.6332927
0.61556292
0.60301234
0.58949709
0.57683398
0.5647923
0.55368212
0.54364707
0.53480945
0.52723351
0.52093494
0.51588446
0.51201676
0.5092401
0.50744594
0.50651751
0.50633692
0.50679035
0.50777161
0.50918426
0.51094258
0.51297163
0.51520685
0.51759329
0.5200846
0.52264208
0.52523365
0.52783294
0.53041844
0.53297274
0.53548189
0.53793485
0.54032301
0.54263974
0.54488013
0.54704063
0.54911883
0.55111328
0.55302331
0.55484887
0.55659045
0.55824894
0.55982558
0.56132186
0.56273951
0.5640804
0.56534652
0.56653994
0.5676628
0.56871724
0.56970543
0.57062952
0.57149162
0.57229382
0.5730381
0.57372645
0.57436076
0.57494284
0.57547439
0.575957
0.57639215
0.57678114
0.57712504
0.57742451
0.57767987
0.57789153
0.57806041
0.578187
0.57826851
0.57829815
0.57827399
0.57821418
0.57814618
0.57803764
0.57773984
0.57716148
0.57671268
0.5988257
0.65172685
0.60717415
0.60057039
0.58172914
0.56679609
0.5520773
0.53874978
0.52677031
0.51636118
0.50759297
0.50047989
0.49496705
0.49095038
0.48829055
0.48682869
0.4863992
0.4868398
0.48799842
0.48973727
0.4919348
0.49448599
0.4973016
0.50030687
0.50343986
0.50664977
0.5098953
0.51314316
0.51636677
0.51954507
0.52266159
0.5257036
0.52866144
0.53152796
0.53429804
0.53696821
0.53953635
0.54200142
0.54436323
0.54662231
0.54877975
0.55083706
0.55279611
0.55465905
0.5564282
0.55810608
0.55969527
0.56119845
0.56261834
0.56395766
0.56521914
0.56640547
0.56751932
0.56856329
0.56953993
0.57045171
0.57130099
0.57209008
0.57282118
0.57349642
0.57411779
0.57468718
0.57520638
0.57567706
0.57610073
0.57647868
0.57681184
0.57710099
0.57734714
0.57755154
0.57771423
0.57783181
0.57789868
0.57791686
0.57790623
0.57788642
0.57781484
0.57755787
0.5770608
0.57668711
0.57895211
0.61336712
0.57125723
0.55887326
0.53943834
0.52254663
0.5077895
0.49523072
0.48483311
0.47663796
0.47054144
0.46637847
0.4639328
0.46296684
0.46324068
0.4645271
0.46662033
0.46934035
0.47253377
0.47607257
0.47985165
0.48378593
0.48780725
0.49186162
0.49590665
0.49990941
0.50384462
0.5076931
0.51144058
0.51507669
0.51859416
0.52198817
0.52525585
0.52839584
0.53140799
0.53429308
0.53705261
0.53968866
0.54220372
0.54460062
0.54688239
0.54905226
0.55111356
0.5530697
0.55492411
0.55668023
0.55834149
0.55991128
0.56139295
0.56278977
0.56410494
0.56534159
0.56650276
0.56759138
0.5686103
0.56956224
0.57044981
0.57127553
0.57204178
0.57275085
0.5734049
0.57400595
0.57455593
0.57505664
0.57550974
0.57591661
0.57627844
0.57659642
0.576872
0.57710659
0.57729997
0.57744885
0.5775497
0.57760773
0.57764174
0.5776618
0.57761832
0.57739764
0.57698517
0.57672907
0.5510139
0.56323322
0.52517099
0.50690499
0.48636519
0.47104421
0.45821746
0.44849562
0.44160394
0.43729516
0.43521611
0.43499972
0.43628644
0.43874997
0.44210701
0.44612035
0.45059656
0.45538118
0.46035287
0.46541759
0.47050336
0.47555573
0.48053403
0.48540833
0.49015704
0.49476499
0.49922198
0.50352157
0.50766024
0.51163664
0.51545111
0.51910523
0.52260149
0.52594309
0.52913372
0.53217738
0.53507835
0.53784101
0.54046986
0.5429694
0.54534414
0.54759852
0.54973695
0.55176373
0.55368311
0.5554992
0.55721601
0.55883746
0.56036733
0.56180928
0.56316686
0.5644435
0.56564251
0.56676705
0.56782019
0.56880483
0.56972376
0.57057965
0.57137503
0.57211232
0.57279378
0.57342157
0.57399771
0.57452409
0.57500244
0.57543425
0.57582089
0.57616382
0.57646471
0.57672488
0.57694394
0.5771194
0.57725019
0.57734385
0.57741663
0.57747045
0.57745475
0.57727862
0.57695336
0.57677879
0.51093801
0.49872929
0.46168219
0.44396318
0.42670454
0.41467344
0.40652865
0.40205807
0.40059331
0.40154543
0.40434329
0.40850115
0.41361926
0.41938236
0.42554808
0.4319341
0.43840561
0.44486444
0.45124027
0.4574836
0.46356045
0.46944829
0.47513299
0.48060659
0.48586561
0.49090978
0.49574114
0.50036336
0.50478123
0.5090003
0.51302659
0.51686641
0.5205262
0.52401245
0.52733158
0.53048993
0.53349371
0.53634895
0.53906152
0.54163712
0.54408125
0.54639921
0.54859614
0.55067698
0.55264648
0.55450923
0.55626966
0.55793201
0.55950037
0.56097866
0.56237067
0.56368001
0.56491019
0.56606453
0.56714623
0.56815834
0.56910376
0.56998526
0.57080551
0.57156699
0.57227208
0.57292301
0.5735219
0.57407071
0.57457123
0.57502506
0.57543373
0.57579885
0.57612208
0.57640451
0.57664575
0.57684427
0.57700097
0.5771239
0.57722537
0.57730188
0.57730917
0.57718287
0.57695257
0.57686639
0.44995824
0.41748898
0.38796727
0.37327593
0.36258424
0.3579443
0.35751553
0.36038163
0.36554601
0.37225261
0.37991966
0.38812704
0.396578
0.40506848
0.41346114
0.42166588
0.42962562
0.43730608
0.44468864
0.45176537
0.45853548
0.46500293
0.47117479
0.47706003
0.48266873
0.48801158
0.49309944
0.49794314
0.50255331
0.50694025
0.51111389
0.51508375
0.51885895
0.52244815
0.52585964
0.52910126
0.5321805
0.5351045
0.53788001
0.54051351
0.54301112
0.54537873
0.54762192
0.54974604
0.55175618
0.55365723
0.55545386
0.55715053
0.55875152
0.56026092
0.56168265
0.56302047
0.56427798
0.56545861
0.56656565
0.56760223
0.56857132
0.5694758
0.57031838
0.57110163
0.57182799
0.57249978
0.57311916
0.57368817
0.57420867
0.57468238
0.57511096
0.57549613
0.57583946
0.57614189
0.57640328
0.57662316
0.57680349
0.57695106
0.57707346
0.57716453
0.57719131
0.57711571
0.57697349
0.57692656
0.35503596
0.32143354
0.3039643
0.29962704
0.30112056
0.30748138
0.3167143
0.3275639
0.33916037
0.35095852
0.36262648
0.37397119
0.3848869
0.39532186
0.40525728
0.4146941
0.4236447
0.4321278
0.44016533
0.44778042
0.45499625
0.46183542
0.46831947
0.47446878
0.48030242
0.48583822
0.49109275
0.49608142
0.50081854
0.50531743
0.50959044
0.51364911
0.51750418
0.52116568
0.52464299
0.52794492
0.53107971
0.53405514
0.53687852
0.53955676
0.5420964
0.54450361
0.54678427
0.54894396
0.55098796
0.55292133
0.55474888
0.5564752
0.55810466
0.55964146
0.56108959
0.56245288
0.56373498
0.56493939
0.56606946
0.56712835
0.56811908
0.56904457
0.56990759
0.57071073
0.57145651
0.57214726
0.57278522
0.57337246
0.57391091
0.5744024
0.5748487
0.57525154
0.57561245
0.57593239
0.57621172
0.57645089
0.57665216
0.5768203
0.57695911
0.57706294
0.57711152
0.57708538
0.5770093
0.57698745
0.2163078
0.21501776
0.22048758
0.23398839
0.25132673
0.26973217
0.28799235
0.30546976
0.321938
0.33733619
0.35169073
0.3650628
0.37752655
0.38915746
0.40002741
0.41020249
0.41974242
0.42870072
0.43712511
0.44505811
0.45253759
0.45959735
0.46626761
0.47257547
0.4785453
0.48419908
0.48955668
0.49463617
0.49945397
0.50402511
0.50836335
0.51248134
0.51639076
0.52010238
0.52362622
0.52697159
0.53014718
0.5331611
0.53602098
0.53873395
0.54130677
0.54374578
0.54605699
0.5482461
0.55031851
0.55227935
0.5541335
0.5558856
0.5575401
0.55910122
0.560573
0.56195929
0.56326377
0.56448998
0.56564126
0.56672082
0.56773169
0.56867681
0.56955896
0.57038077
0.57114477
0.57185332
0.57250868
0.57311294
0.57366808
0.57417598
0.57463846
0.57505721
0.57543371
0.57576903
0.576064
0.57631969
0.5765382
0.57672242
0.57687381
0.57698861
0.57705696
0.57707172
0.57704784
0.57703485
0.091759987
0.12176142
0.1592205
0.19290976
0.2230493
0.24957485
0.27310764
0.2941162
0.31301787
0.33013967
0.34574518
0.36004545
0.37321175
0.3853842
0.39667865
0.40719181
0.41700509
0.42618762
0.43479855
0.44288886
0.45050277
0.4576789
0.46445116
0.47084949
0.47690048
0.48262784
0.48805283
0.49319458
0.49807041
0.50269601
0.50708571
0.51125262
0.51520875
0.5189652
0.52253221
0.52591929
0.52913527
0.5321884
0.5350864
0.53783649
0.54044549
0.5429198
0.54526548
0.54748825
0.54959353
0.55158649
0.55347202
0.55525479
0.55693923
0.55852959
0.56002991
0.56144405
0.56277571
0.56402841
0.56520552
0.56631024
0.56734562
0.56831458
0.56921993
0.57006432
0.57085025
0.57158012
0.57225617
0.57288051
0.57345513
0.5739819
0.57446262
0.57489892
0.57529222
0.57564366
0.5759543
0.57622548
0.57645903
0.57665673
0.57681906
0.57694385
0.57702669
0.57706475
0.57707155
0.57706186
0.012364881
0.28488361
0.46699477
0.51772091
0.52745597
0.5274771
0.52748133
0.5290962
0.53099034
0.53280577
0.53449097
0.53613863
0.53769205
0.5392178
0.54072068
0.54221529
0.5437012
0.54518067
0.54665568
0.54812685
0.54959419
0.55105732
0.55251561
0.55396815
0.55541385
0.55685148
0.55827968
0.55969702
0.561102
0.56249306
0.56386861
0.56522703
0.56656665
0.56788582
0.5691828
0.5704559
0.57170334
0.57292337
0.57411419
0.57527399
0.57640092
0.57749314
0.57854877
0.57956594
0.58054275
0.58147732
0.58236776
0.58321222
0.5840089
0.58475604
0.58545197
0.58609514
0.58668408
0.58721748
0.58769418
0.58811319
0.58847373
0.58877512
0.58901698
0.58919878
0.58931982
0.58937974
0.58937858
0.58931651
0.58919289
0.58900779
0.58875716
0.58844516
0.58805563
0.58761887
0.58706662
0.58653117
0.58575108
0.58518284
0.58403314
0.58361897
0.58190344
0.5817818
0.57962168
0.57952296
0.047201771
0.3692487
0.52241415
0.54934065
0.54944245
0.5469042
0.5461365
0.54641186
0.54664985
0.54694893
0.54734756
0.54789794
0.54856041
0.54930518
0.55010756
0.55096265
0.5518655
0.55281363
0.55380286
0.55482865
0.55588688
0.55697362
0.55808512
0.55921772
0.56036787
0.56153213
0.56270716
0.56388973
0.56507668
0.56626498
0.56745165
0.56863382
0.56980868
0.57097348
0.57212555
0.57326227
0.57438106
0.57547939
0.57655477
0.57760475
0.57862692
0.5796189
0.58057833
0.58150289
0.58239032
0.58323837
0.58404486
0.58480768
0.5855248
0.58619428
0.58681431
0.58738323
0.5878995
0.58836178
0.58876889
0.58911985
0.58941392
0.58965053
0.58982934
0.58994993
0.59001171
0.59001445
0.58995834
0.58984364
0.5896699
0.58943706
0.58914165
0.58878681
0.58835873
0.58788327
0.58730077
0.58672757
0.58592899
0.58532301
0.58416952
0.58371352
0.58199775
0.5818642
0.57962611
0.57964913
0.093999395
0.44120974
0.54504705
0.55796177
0.55583318
0.55456358
0.55448829
0.55494864
0.55522726
0.55561972
0.55599541
0.55643537
0.55689941
0.55741412
0.55796969
0.55856907
0.559209
0.55989022
0.56061079
0.56136845
0.56216098
0.56298603
0.56384105
0.56472338
0.56563025
0.56655883
0.56750623
0.5684695
0.56944568
0.57043179
0.57142484
0.57242182
0.57341976
0.57441565
0.57540653
0.57638944
0.57736144
0.57831962
0.57926111
0.58018305
0.58108263
0.58195709
0.5828037
0.58361977
0.58440267
0.58514986
0.58585886
0.5865273
0.5871529
0.58773356
0.5882673
0.5887523
0.58918694
0.58956982
0.58989971
0.59017563
0.59039686
0.59056287
0.59067339
0.59072808
0.59072639
0.59066825
0.59055395
0.5903838
0.59015749
0.5898749
0.58953292
0.58913403
0.58866588
0.5881515
0.5875366
0.58692718
0.58610626
0.58546721
0.58430267
0.58381173
0.5820868
0.58194374
0.57964071
0.57976018
0.16677387
0.4994323
0.55862345
0.56593389
0.56245419
0.56232287
0.56237222
0.56286457
0.56303356
0.56337401
0.56365129
0.56400725
0.56437448
0.56478145
0.56521194
0.56567165
0.5661585
0.56667518
0.56722099
0.56779531
0.56839755
0.56902691
0.56968237
0.5703627
0.57106647
0.57179208
0.57253772
0.57330143
0.57408108
0.57487438
0.57567893
0.57649218
0.57731148