/*--------------------------------*- C++ -*----------------------------------*\
| =========                 |                                                 |
| \\      /  F ield         | OpenFOAM: The Open Source CFD Toolbox           |
|  \\    /   O peration     | Version:  2512                                  |
|   \\  /    A nd           | Website:  www.openfoam.com                      |
|    \\/     M anipulation  |                                                 |
\*---------------------------------------------------------------------------*/
FoamFile
{
    version     2.0;
    format      ascii;
    arch        "LSB;label=32;scalar=64";
    class       volScalarField;
    location    "0.149";
    object      nut;
}
// * * * * * * * * * * * * * * * * * * * * * * * * * * * * * * * * * * * * * //

dimensions      [0 2 -1 0 0 0 0];

internalField   nonuniform List<scalar> 
16000
(
5.7688941e-07
1.1002895e-05
1.8765957e-05
2.3280509e-05
1.8550051e-05
2.509661e-05
1.7861502e-05
2.4528418e-05
1.9089298e-05
2.6500395e-05
2.2175426e-05
2.6145644e-05
2.3735652e-05
2.4356617e-05
2.3484691e-05
2.3323388e-05
2.304962e-05
2.2958319e-05
2.2946514e-05
2.3034244e-05
2.3213739e-05
2.3483512e-05
2.3840784e-05
2.428533e-05
2.4818862e-05
2.5446987e-05
2.617728e-05
2.7022057e-05
2.7996362e-05
2.9116392e-05
3.0399896e-05
3.1870559e-05
3.3559025e-05
3.5503074e-05
3.7749227e-05
4.0352979e-05
4.3380431e-05
4.6910388e-05
5.1040435e-05
5.5891549e-05
6.160564e-05
6.834972e-05
7.6334441e-05
8.5817832e-05
9.7106879e-05
0.00011056967
0.00012666266
0.00014594202
0.00016908483
0.00019691615
0.00023044563
0.00027091179
0.00031982889
0.00037905269
0.00045085749
0.00053804147
0.00064405773
0.00077318474
0.00093075668
0.0010188918
0.0010188188
0.0010187025
0.0010185507
0.0010183267
0.0010180271
0.0010176422
0.0010171651
0.0010165887
0.0010159008
0.0010150816
0.0010141002
0.0010129025
0.0010114479
0.001009949
0.0010086715
0.00100755
0.0010065528
0.0010065308
0.0010048511
0.0010056974
4.9331883e-07
1.0425766e-05
1.9575356e-05
2.0909824e-05
1.6756379e-05
2.2542918e-05
1.5879643e-05
2.1502445e-05
1.6889303e-05
2.3412133e-05
2.0100382e-05
2.3588318e-05
2.1727827e-05
2.2087524e-05
2.140278e-05
2.1192118e-05
2.0962533e-05
2.0869051e-05
2.0860863e-05
2.0941076e-05
2.110716e-05
2.1357272e-05
2.1689201e-05
2.2102837e-05
2.2599399e-05
2.3184117e-05
2.3863523e-05
2.4648693e-05
2.5553857e-05
2.659482e-05
2.7788093e-05
2.9155302e-05
3.0724804e-05
3.253157e-05
3.4619121e-05
3.7039633e-05
3.9855672e-05
4.3141282e-05
4.6987332e-05
5.1508343e-05
5.6840724e-05
6.3141714e-05
7.0609688e-05
7.9490693e-05
9.0079649e-05
0.00010272647
0.00011786663
0.00013603262
0.00015787423
0.00018418388
0.00021593169
0.00025431098
0.00030078295
0.00035714192
0.00042558943
0.00050883738
0.00061023704
0.00073393783
0.00088509861
0.0010181722
0.0010181193
0.0010179805
0.0010178139
0.0010175773
0.001017267
0.0010168727
0.0010163867
0.001015802
0.0010151067
0.0010142811
0.0010132973
0.0010121078
0.0010106752
0.0010092484
0.0010080334
0.0010069409
0.0010060706
0.0010057274
0.0010047395
0.0010056143
4.4192669e-07
9.988201e-06
1.8557072e-05
1.9176749e-05
1.5042438e-05
1.9891636e-05
1.4157977e-05
1.8704228e-05
1.5203912e-05
2.0547072e-05
1.8343168e-05
2.1010311e-05
1.9694993e-05
1.9789434e-05
1.9259906e-05
1.9030259e-05
1.8836521e-05
1.8751123e-05
1.8748639e-05
1.8825747e-05
1.8981394e-05
1.9214129e-05
1.9522036e-05
1.9905318e-05
2.0364864e-05
2.0905742e-05
2.1533798e-05
2.2259079e-05
2.3094864e-05
2.4056586e-05
2.5159948e-05
2.6424963e-05
2.7878108e-05
2.9551948e-05
3.1487355e-05
3.3733469e-05
3.6349743e-05
3.9406522e-05
4.2989071e-05
4.7205494e-05
5.2187736e-05
5.8085589e-05
6.5086985e-05
7.3426871e-05
8.3390676e-05
9.5313737e-05
0.00010961409
0.00012680459
0.00014751253
0.00017250413
0.00020271712
0.00023930792
0.00028369408
0.00033761976
0.00040322711
0.00048315693
0.00058067631
0.00069983495
0.00084566096
0.0010174989
0.001017466
0.0010173004
0.001017111
0.0010168541
0.0010165255
0.0010161144
0.0010156128
0.0010150131
0.001014304
0.0010134651
0.0010124707
0.0010112809
0.0010098625
0.0010085159
0.0010073683
0.0010063417
0.0010055335
0.0010050845
0.0010045297
0.0010054066
3.9370729e-07
9.663738e-06
1.7655899e-05
1.8416541e-05
1.3576945e-05
1.7595682e-05
1.2634466e-05
1.6360329e-05
1.3701261e-05
1.8116861e-05
1.676065e-05
1.8729558e-05
1.7820162e-05
1.7721737e-05
1.7308856e-05
1.708059e-05
1.6918002e-05
1.6844883e-05
1.6849794e-05
1.6926234e-05
1.7073888e-05
1.7291837e-05
1.7578519e-05
1.7934596e-05
1.8360778e-05
1.8862112e-05
1.9444008e-05
2.0115703e-05
2.088957e-05
2.1780739e-05
2.2804389e-05
2.3979165e-05
2.5330024e-05
2.6887465e-05
2.8690131e-05
3.0784549e-05
3.3227498e-05
3.6086441e-05
3.9442219e-05
4.3396982e-05
4.8079286e-05
5.3633332e-05
6.0238731e-05
6.8120613e-05
7.7557651e-05
8.8874055e-05
0.00010247416
0.00011885568
0.00013862869
0.00016254036
0.00019150401
0.00022664924
0.00026936187
0.00032135062
0.00038471649
0.00046205144
0.00055656488
0.00067224063
0.00081402734
0.00098806744
0.0010168566
0.0010166612
0.0010164443
0.0010161626
0.0010158112
0.0010153794
0.0010148582
0.0010142398
0.0010135132
0.0010126579
0.0010116489
0.0010104565
0.0010090491
0.0010077827
0.0010067068
0.0010057522
0.0010049751
0.0010044807
0.0010042109
0.0010048867
3.4401509e-07
9.4296214e-06
1.6889391e-05
1.849694e-05
1.3445047e-05
1.5585135e-05
1.129624e-05
1.4346735e-05
1.2407531e-05
1.6023419e-05
1.5354016e-05
1.6674536e-05
1.607006e-05
1.584107e-05
1.5514388e-05
1.5300668e-05
1.5163031e-05
1.5101762e-05
1.5111962e-05
1.5186432e-05
1.5325203e-05
1.5528045e-05
1.5793793e-05
1.6123608e-05
1.6518163e-05
1.698252e-05
1.7521773e-05
1.814451e-05
1.8862201e-05
1.9689622e-05
2.0641617e-05
2.1735698e-05
2.2995568e-05
2.4449954e-05
2.6135585e-05
2.8096731e-05
3.0387794e-05
3.3073932e-05
3.6232712e-05
3.9960647e-05
4.4383485e-05
4.9641309e-05
5.5907308e-05
6.3397452e-05
7.2385402e-05
8.3186829e-05
9.6194884e-05
0.00011189502
0.00013088324
0.00015389215
0.0001818153
0.00021576128
0.00025709054
0.00030748399
0.00036901063
0.00044422445
0.00053628994
0.00064913953
0.00078766142
0.0009579176
0.001016292
0.0010160642
0.0010158144
0.0010155027
0.0010151237
0.0010146665
0.0010141213
0.0010134799
0.0010127317
0.0010118565
0.0010108281
0.0010096299
0.0010082434
0.0010070575
0.0010060568
0.0010051742
0.0010044225
0.0010039273
0.0010038429
0.0010041528
3.1019433e-07
9.2735747e-06
1.6281722e-05
1.8226067e-05
1.3246138e-05
1.3830806e-05
1.0746306e-05
1.2677851e-05
1.1715818e-05
1.4304919e-05
1.41245e-05
1.4868323e-05
1.4466562e-05
1.4159877e-05
1.388723e-05
1.3689711e-05
1.3568306e-05
1.3514753e-05
1.3526843e-05
1.3597549e-05
1.3726896e-05
1.3915207e-05
1.4161578e-05
1.4467423e-05
1.4833602e-05
1.5265077e-05
1.5766707e-05
1.6346587e-05
1.7015315e-05
1.7787288e-05
1.8677189e-05
1.9701627e-05
2.0883329e-05
2.2249561e-05
2.3835509e-05
2.5683596e-05
2.7846247e-05
3.0386824e-05
3.3380861e-05
3.6920058e-05
4.1127631e-05
4.6141064e-05
5.2129524e-05
5.9300736e-05
6.7925238e-05
7.8313166e-05
9.0849473e-05
0.00010601103
0.00012438349
0.00014669055
0.0001738119
0.00020684254
0.00024712626
0.00029632622
0.00035649225
0.00043015543
0.00052045325
0.00063128772
0.00076751478
0.00093515515
0.001015764
0.0010155013
0.0010152142
0.0010148684
0.0010144576
0.001013971
0.0010133982
0.0010127301
0.001011957
0.0010110594
0.0010100084
0.0010087995
0.0010074512
0.0010063463
0.001005423
0.0010046117
0.0010038896
0.0010034022
0.0010034436
0.0010035244
2.7712702e-07
9.1813935e-06
1.5800386e-05
1.7199835e-05
1.3090255e-05
1.2221201e-05
1.0737535e-05
1.1674733e-05
1.1206988e-05
1.2718247e-05
1.3002535e-05
1.3262817e-05
1.2966427e-05
1.262739e-05
1.23868e-05
1.2206857e-05
1.2098713e-05
1.2052657e-05
1.206712e-05
1.2135613e-05
1.2257788e-05
1.2434458e-05
1.2664973e-05
1.2874277e-05
1.3207453e-05
1.3603161e-05
1.406565e-05
1.4602335e-05
1.5222764e-05
1.5940628e-05
1.6770415e-05
1.7727865e-05
1.8834815e-05
2.0117152e-05
2.1608642e-05
2.3350041e-05
2.5391928e-05
2.7795906e-05
3.0636235e-05
3.425732e-05
3.8291975e-05
4.3110336e-05
4.8879955e-05
5.5801522e-05
6.4143508e-05
7.4213432e-05
8.639093e-05
0.00010114762
0.00011906199
0.00014085404
0.00016739482
0.0001997725
0.00023932183
0.00028769722
0.00034694035
0.00041957278
0.00050872058
0.00061827323
0.0007530768
0.00091914293
0.0010152696
0.0010149694
0.0010146412
0.0010142573
0.0010138109
0.0010132914
0.0010126878
0.0010119901
0.0010111887
0.0010102666
0.0010091924
0.0010079649
0.0010066826
0.0010056582
0.0010048125
0.0010040718
0.0010033892
0.0010029157
0.0010029829
0.001002936
2.5543165e-07
9.1281884e-06
1.5380353e-05
1.5604418e-05
1.1731157e-05
1.0646131e-05
9.053995e-06
1.0370776e-05
9.4858047e-06
1.145859e-05
1.1862098e-05
1.1779794e-05
1.1528877e-05
1.1200752e-05
1.098779e-05
1.0830603e-05
1.0738492e-05
1.0703029e-05
1.0657696e-05
1.0711352e-05
1.0818373e-05
1.0978712e-05
1.1190543e-05
1.1453433e-05
1.1771526e-05
1.2147864e-05
1.2586856e-05
1.3095884e-05
1.368399e-05
1.4364469e-05
1.5152043e-05
1.6062019e-05
1.7115836e-05
1.8338539e-05
1.9763089e-05
2.1429207e-05
2.3386386e-05
2.5695169e-05
2.8429407e-05
3.1679012e-05
3.555355e-05
4.0191769e-05
4.5761416e-05
5.2899931e-05
6.1041033e-05
7.0889335e-05
8.2822395e-05
9.7309846e-05
0.0001149263
0.00013639368
0.00016257998
0.0001945736
0.00023370871
0.00028164055
0.00034041459
0.00041255742
0.00050120085
0.00061024178
0.00074453983
0.00091013054
0.0010148022
0.0010144622
0.00101409
0.0010136648
0.0010131798
0.0010126244
0.0010119872
0.0010112575
0.0010104251
0.0010094763
0.0010083817
0.0010071287
0.0010059434
0.0010049994
0.0010042298
0.0010035588
0.0010029243
0.0010024726
0.0010025109
0.0010023642
2.2775364e-07
9.09347e-06
1.492415e-05
1.3666207e-05
9.6129716e-06
9.4857361e-06
7.489841e-06
8.9064119e-06
9.0614163e-06
1.0263714e-05
1.0710382e-05
1.040362e-05
1.0176801e-05
9.8828815e-06
9.6969753e-06
9.4971861e-06
9.3974612e-06
9.3590288e-06
9.3748672e-06
9.4416593e-06
9.5544644e-06
9.7163433e-06
9.9246925e-06
1.0179979e-05
1.0486264e-05
1.0847399e-05
1.1267902e-05
1.175522e-05
1.2318065e-05
1.2969328e-05
1.372407e-05
1.459739e-05
1.5610617e-05
1.6788218e-05
1.816267e-05
1.9773078e-05
2.166829e-05
2.3908282e-05
2.656635e-05
2.973167e-05
3.3514233e-05
3.8050861e-05
4.3512151e-05
5.0095881e-05
5.805555e-05
6.770647e-05
8.0128906e-05
9.4480775e-05
0.0001119575
0.00013328826
0.00015934387
0.00019122012
0.00023025914
0.00027812684
0.00033688453
0.00040907878
0.00049786489
0.00060716771
0.00074188345
0.0009081028
0.0010143564
0.0010139744
0.0010135558
0.001013087
0.0010125608
0.0010119671
0.0010112943
0.0010105309
0.0010096657
0.0010086874
0.0010075783
0.0010063199
0.0010052402
0.0010043761
0.0010036796
0.0010030772
0.0010024962
0.0010020651
0.0010020589
0.0010017929
2.0688399e-07
9.0526779e-06
1.3214463e-05
1.1949628e-05
7.7706237e-06
8.4401275e-06
6.7856738e-06
8.0160351e-06
8.3853231e-06
9.174246e-06
9.570812e-06
9.1521122e-06
8.9349026e-06
8.5960261e-06
8.4029822e-06
8.2749721e-06
8.2089459e-06
8.19592e-06
8.2288821e-06
8.3082908e-06
8.4284394e-06
8.5911092e-06
8.7975206e-06
9.0475242e-06
9.3454592e-06
9.6956174e-06
1.0102702e-05
1.0574356e-05
1.111911e-05
1.1749483e-05
1.2480917e-05
1.3328594e-05
1.4313927e-05
1.5461051e-05
1.6802246e-05
1.8376374e-05
2.0232044e-05
2.242917e-05
2.5041383e-05
2.8158319e-05
3.1890123e-05
3.6373312e-05
4.1781719e-05
4.8313382e-05
5.6224295e-05
6.5832069e-05
7.7528252e-05
9.1772465e-05
0.00011014564
0.00013152881
0.00015767968
0.0001897085
0.00022897455
0.00027716482
0.00033636925
0.0004091702
0.00049876554
0.00060913061
0.00074522282
0.00091321806
0.0010139258
0.0010135
0.0010130337
0.0010125194
0.0010119503
0.0010113166
0.0010106067
0.0010098084
0.00100891
0.0010078998
0.0010067775
0.0010055592
0.0010045783
0.001003793
0.0010031656
0.0010026298
0.0010021085
0.0010016938
0.0010016205
0.001001266
1.9027604e-07
9.0016924e-06
1.0477308e-05
9.8229171e-06
6.4334544e-06
7.5119352e-06
6.1911118e-06
7.1986303e-06
7.8379938e-06
8.1784828e-06
8.4513661e-06
7.9271385e-06
7.665991e-06
7.4267409e-06
7.2812695e-06
7.1924294e-06
7.1546517e-06
7.1643342e-06
7.2140803e-06
7.3031088e-06
7.4298583e-06
7.5956913e-06
7.8022068e-06
8.0498798e-06
8.3431658e-06
8.6868289e-06
9.0858834e-06
9.5482191e-06
1.0082364e-05
1.0700519e-05
1.1360013e-05
1.2183428e-05
1.3142844e-05
1.4262012e-05
1.5572986e-05
1.7114404e-05
1.8934694e-05
2.1093756e-05
2.3665675e-05
2.6740813e-05
3.0430476e-05
3.5146039e-05
4.0557002e-05
4.7103395e-05
5.5043824e-05
6.4699404e-05
7.6472998e-05
9.0835347e-05
0.00010838011
0.00012984736
0.00015757295
0.00019002717
0.00022984781
0.00027875384
0.00033887734
0.00041285341
0.00050394262
0.00061619549
0.00075465758
0.00092561879
0.0010135044
0.0010130333
0.0010125187
0.001011958
0.0010113448
0.0010106701
0.0010099221
0.0010090883
0.0010081573
0.0010071165
0.0010059738
0.0010048478
0.0010039624
0.0010032542
0.001002691
0.0010022182
0.0010017626
0.0010013691
0.001001213
0.0010008828
1.7484246e-07
8.9487495e-06
8.2693237e-06
8.3621554e-06
5.7593102e-06
6.6520894e-06
5.6789741e-06
6.4836816e-06
7.2787717e-06
7.2491055e-06
7.2380399e-06
6.7911837e-06
6.5769869e-06
6.3987805e-06
6.293929e-06
6.23811e-06
6.2263939e-06
6.2542506e-06
6.3184032e-06
6.4184219e-06
6.5527699e-06
6.7232425e-06
6.932317e-06
7.1809664e-06
7.4737749e-06
7.7823254e-06
8.1721813e-06
8.6248796e-06
9.1488142e-06
9.7557438e-06
1.0459813e-05
1.1279419e-05
1.2235307e-05
1.335131e-05
1.4659805e-05
1.6199868e-05
1.8020576e-05
2.0182694e-05
2.2761879e-05
2.5850514e-05
2.9562671e-05
3.4040901e-05
3.9459878e-05
4.6029095e-05
5.4011695e-05
6.4288808e-05
7.6250254e-05
9.0860945e-05
0.00010872551
0.0001306074
0.00015743943
0.00019216489
0.00023287386
0.0002828975
0.00034442421
0.00042016013
0.00051345023
0.0006284471
0.00077031559
0.00094548748
0.0010130864
0.0010125689
0.0010120062
0.0010113989
0.0010107413
0.001010025
0.0010092386
0.0010083691
0.0010074061
0.0010063421
0.0010051814
0.0010041884
0.0010033954
0.0010027623
0.0010022587
0.0010018425
0.0010014542
0.0010010971
0.0010008706
0.0010005201
1.6142469e-07
8.8702259e-06
6.579033e-06
7.3451873e-06
5.1327182e-06
5.8820181e-06
5.2356817e-06
5.8468009e-06
6.611595e-06
6.1960924e-06
6.1421768e-06
5.7970388e-06
5.626184e-06
5.4976845e-06
5.4278667e-06
5.4005266e-06
5.4111349e-06
5.4571585e-06
5.5355538e-06
5.646765e-06
5.7901371e-06
5.9675984e-06
6.1559968e-06
6.4035297e-06
6.695039e-06
7.0347284e-06
7.4296551e-06
7.8873662e-06
8.4164479e-06
9.0288353e-06
9.7388076e-06
1.0564532e-05
1.1527989e-05
1.2653387e-05
1.3973686e-05
1.5528769e-05
1.7368895e-05
1.955619e-05
2.2168573e-05
2.5301444e-05
2.9071821e-05
3.3625543e-05
3.9146332e-05
4.584907e-05
5.4005266e-05
6.3952673e-05
7.6110918e-05
9.0987381e-05
0.00011016882
0.00013265388
0.00016024497
0.00019413375
0.00023803977
0.0002895913
0.00035301654
0.00043111264
0.00052733238
0.00064595892
0.00079231349
0.00097300032
0.0010126666
0.0010121018
0.0010114921
0.0010108386
0.0010101368
0.0010093791
0.0010085547
0.0010076506
0.0010066553
0.001005577
0.0010044654
0.0010035819
0.0010028789
0.0010023189
0.0010018715
0.0010015041
0.0010011769
0.0010008707
0.0010006092
0.0010002291
1.4953796e-07
8.7370307e-06
5.2813721e-06
6.4222394e-06
4.5698077e-06
5.1945233e-06
4.8571768e-06
5.1960331e-06
5.7755548e-06
5.2811404e-06
5.1815568e-06
4.9283016e-06
4.7981195e-06
4.7111484e-06
4.6723327e-06
4.6706171e-06
4.702152e-06
4.7654372e-06
4.8584157e-06
4.9633473e-06
5.1118232e-06
5.2944197e-06
5.5134329e-06
5.7718497e-06
6.07395e-06
6.4242889e-06
6.8298133e-06
7.2986629e-06
7.8396247e-06
8.464782e-06
9.1885365e-06
1.0029292e-05
1.0959844e-05
1.2094653e-05
1.3426609e-05
1.499638e-05
1.6855602e-05
1.9067809e-05
2.1713215e-05
2.4890719e-05
2.8721264e-05
3.3608258e-05
3.9281015e-05
4.6178202e-05
5.4580752e-05
6.4836231e-05
7.7384499e-05
9.2755574e-05
0.00011159873
0.00013595661
0.000164536
0.00019965805
0.0002428442
0.0002988167
0.00036464559
0.00044571534
0.00054561323
0.00066878169
0.00082074112
0.00100831
0.00101224
0.0010116281
0.0010109729
0.0010102745
0.0010095294
0.0010087307
0.001007869
0.0010069328
0.0010059096
0.0010048113
0.0010038143
0.0010030316
0.0010024131
0.0010019236
0.0010015311
0.0010012053
0.0010009261
0.0010006799
0.0010004385
0.0010000206
1.3901376e-07
8.5178196e-06
4.3041529e-06
5.5967044e-06
4.0653414e-06
4.5831699e-06
4.5248495e-06
4.4901515e-06
4.9347412e-06
4.4671052e-06
4.3507808e-06
4.1730173e-06
4.0810848e-06
4.0298009e-06
4.018994e-06
4.0409035e-06
4.092488e-06
4.1565326e-06
4.2594513e-06
4.3929299e-06
4.5578529e-06
4.7557575e-06
4.9895903e-06
5.2625036e-06
5.5793002e-06
5.9447675e-06
6.3658964e-06
6.8307336e-06
7.383674e-06
8.0214333e-06
8.7584725e-06
9.6132366e-06
1.0608303e-05
1.1772061e-05
1.3138416e-05
1.4749394e-05
1.6658985e-05
1.8933135e-05
2.1655261e-05
2.4929279e-05
2.8881696e-05
3.3671942e-05
3.9492915e-05
4.6582322e-05
5.523315e-05
6.6358513e-05
7.940106e-05
9.5390316e-05
0.00011500766
0.00013909381
0.00017026977
0.00020690018
0.00025196204
0.00030741283
0.000379271
0.00046393556
0.00056827316
0.00069691502
0.00085562387
0.0010124322
0.0010118019
0.0010111446
0.0010104461
0.0010097046
0.0010089176
0.0010080794
0.0010071812
0.0010062141
0.0010051765
0.0010040987
0.0010032288
0.0010025384
0.0010019974
0.0010015749
0.0010012371
0.0010009493
0.0010007017
0.0010005069
0.001000333
0.00099991747
1.2977092e-07
8.2151853e-06
3.686441e-06
4.8623196e-06
3.6152028e-06
4.0406976e-06
4.0081714e-06
3.8519589e-06
4.1265179e-06
3.7490203e-06
3.6399212e-06
3.5221831e-06
3.4658663e-06
3.4460787e-06
3.4610257e-06
3.4923974e-06
3.5575226e-06
3.6522269e-06
3.7757291e-06
3.9282764e-06
4.1113353e-06
4.3269209e-06
4.5783584e-06
4.8690583e-06
5.192443e-06
5.5731769e-06
6.0098876e-06
6.510681e-06
7.0857657e-06
7.7473235e-06
8.5102137e-06
9.3936507e-06
1.042116e-05
1.1622235e-05
1.303313e-05
1.4697443e-05
1.6672066e-05
1.9026071e-05
2.1846328e-05
2.5242945e-05
2.9347524e-05
3.4327549e-05
4.0388498e-05
4.7778784e-05
5.6807989e-05
6.7856116e-05
8.2113835e-05
9.884427e-05
0.00011938098
0.0001446163
0.00017562566
0.00021579009
0.00026305488
0.00032124019
0.00039288109
0.00048567782
0.00059521773
0.00073027141
0.00089687841
0.0010120144
0.0010113487
0.0010106492
0.0010099102
0.0010091282
0.0010083012
0.0010074252
0.001006493
0.0010054973
0.0010044489
0.0010034742
0.001002708
0.0010021024
0.0010016311
0.0010012697
0.001000986
0.0010007373
0.0010005114
0.0010003451
0.0010002119
0.00099989568
1.2184133e-07
7.3890969e-06
3.2369813e-06
4.2053978e-06
3.2147252e-06
3.4086153e-06
3.5506459e-06
3.2675221e-06
3.3961211e-06
3.1258318e-06
3.0386865e-06
2.9685517e-06
2.9448049e-06
2.9535062e-06
2.9775767e-06
3.0390628e-06
3.1289657e-06
3.2460771e-06
3.3904758e-06
3.5630962e-06
3.7659131e-06
4.001201e-06
4.2644964e-06
4.572918e-06
4.9256906e-06
5.3284881e-06
5.7881488e-06
6.3130835e-06
6.913724e-06
7.6030355e-06
8.3963654e-06
9.3137575e-06
1.0379815e-05
1.1625516e-05
1.3033304e-05
1.4747178e-05
1.6782464e-05
1.9211849e-05
2.2259107e-05
2.5802402e-05
3.0089064e-05
3.5294576e-05
4.1638092e-05
4.9381406e-05
5.8849946e-05
7.0446747e-05
8.4666503e-05
0.00010211662
0.00012464734
0.00015119956
0.00018384371
0.00022399719
0.00027599786
0.00033730322
0.00041280476
0.00051075285
0.00062623766
0.0007686289
0.00094427302
0.0010115817
0.0010108798
0.0010101413
0.0010093648
0.0010085456
0.0010076812
0.0010067695
0.0010058065
0.0010047931
0.0010037616
0.0010029244
0.001002252
0.0010017225
0.0010013136
0.0010010056
0.0010007718
0.0010005649
0.0010003619
0.0010002224
0.0010001401
0.00099997571
1.1544134e-07
5.3629702e-06
2.8519082e-06
3.6100489e-06
2.8665208e-06
2.8258108e-06
3.0944561e-06
2.7380679e-06
2.7690941e-06
2.593984e-06
2.5358724e-06
2.5048122e-06
2.5034062e-06
2.5312832e-06
2.5910643e-06
2.6786523e-06
2.79212e-06
2.9312454e-06
3.0968349e-06
3.2902533e-06
3.5087889e-06
3.7632987e-06
4.0539087e-06
4.3846549e-06
4.7603741e-06
5.186947e-06
5.6715373e-06
6.2228929e-06
6.8517826e-06
7.5551449e-06
8.3769577e-06
9.3257111e-06
1.0427014e-05
1.1712955e-05
1.3223677e-05
1.5009373e-05
1.7132116e-05
1.9669622e-05
2.2718339e-05
2.6397464e-05
3.0855033e-05
3.653465e-05
4.3198619e-05
5.1342195e-05
6.1307732e-05
7.3520986e-05
8.8505884e-05
0.00010690772
0.00013070909
0.0001587309
0.00019319783
0.00023560611
0.00029060212
0.0003553805
0.00043518585
0.00053353516
0.00066097131
0.00081157908
0.00099735494
0.0010111357
0.0010103965
0.0010096219
0.001008811
0.0010079584
0.0010070603
0.0010061161
0.0010051255
0.0010041019
0.0010031765
0.0010024442
0.001001858
0.0010013963
0.0010010436
0.0010007812
0.0010005887
0.0010004229
0.0010002539
0.0010001471
0.0010001092
0.00099999701
1.1022285e-07
3.98762e-06
2.5061116e-06
3.0594125e-06
2.4296684e-06
2.3356117e-06
2.6171317e-06
2.2673414e-06
2.2485192e-06
2.1477952e-06
2.1218569e-06
2.1177389e-06
2.1457455e-06
2.2051704e-06
2.2918879e-06
2.4035144e-06
2.5393328e-06
2.6998068e-06
2.8835825e-06
3.096609e-06
3.3399011e-06
3.6162919e-06
3.9292391e-06
4.2829553e-06
4.6825275e-06
5.1340931e-06
5.6451077e-06
6.2153496e-06
6.8710266e-06
7.61958e-06
8.4782982e-06
9.468661e-06
1.0617744e-05
1.1959552e-05
1.3536724e-05
1.5402411e-05
1.7622694e-05
2.0279808e-05
2.347609e-05
2.733856e-05
3.2024659e-05
3.7728583e-05
4.5023035e-05
5.3606313e-05
6.4117596e-05
7.7007113e-05
9.2829443e-05
0.00011226897
0.00013617001
0.00016705915
0.00020350857
0.00024837153
0.00030361523
0.00037515563
0.00045964258
0.00056378953
0.00069886795
0.0008584744
0.0010114396
0.0010106785
0.0010099024
0.0010090942
0.0010082514
0.0010073694
0.0010064424
0.0010054698
0.0010044645
0.0010034651
0.0010026697
0.001002031
0.0010015219
0.00100112
0.0010008168
0.0010005961
0.0010004348
0.0010002981
0.0010001665
0.0010000919
0.0010000847
0.0010000224
1.0465325e-07
3.5232066e-06
2.140432e-06
2.5514607e-06
2.0712385e-06
1.9250749e-06
2.1300439e-06
1.8568541e-06
1.8277237e-06
1.7836717e-06
1.7855674e-06
1.8135078e-06
1.8740054e-06
1.9607279e-06
2.0712411e-06
2.2046259e-06
2.3610927e-06
2.5398114e-06
2.7454845e-06
2.9792371e-06
3.2435939e-06
3.5416204e-06
3.8769859e-06
4.2540752e-06
4.6781565e-06
5.1555923e-06
5.6878177e-06
6.2941504e-06
6.9820112e-06
7.7658715e-06
8.663936e-06
9.698936e-06
1.0899466e-05
1.2301481e-05
1.395024e-05
1.5902422e-05
1.8228416e-05
2.1015485e-05
2.4372192e-05
2.8432766e-05
3.3363886e-05
3.9656635e-05
4.7056437e-05
5.6109316e-05
6.7203152e-05
8.0813887e-05
9.7528218e-05
0.00011807008
0.0001446608
0.00017598878
0.00021453842
0.00026200205
0.00032046595
0.00039619859
0.00048565969
0.00059597656
0.00073914607
0.00090836548
0.0010109979
0.0010102124
0.0010094029
0.0010085637
0.001007691
0.0010067821
0.0010058328
0.0010048381
0.0010038198
0.0010029356
0.0010022335
0.0010016775
0.0010012383
0.001000892
0.00100063
0.0010004466
0.0010003116
0.0010001977
0.0010000958
0.0010000545
0.0010000691
0.0010000391
1.0058361e-07
3.0386817e-06
1.8248377e-06
2.0400777e-06
1.7751261e-06
1.5749925e-06
1.6831222e-06
1.5117438e-06
1.4990046e-06
1.4995624e-06
1.5291062e-06
1.5904943e-06
1.677742e-06
1.7873258e-06
1.9183031e-06
2.0708737e-06
2.2449922e-06
2.4437475e-06
2.6687175e-06
2.9222264e-06
3.2070536e-06
3.5264503e-06
3.8842268e-06
4.2848921e-06
4.7338528e-06
5.2340995e-06
5.7989369e-06
6.4358737e-06
7.1569895e-06
7.9774435e-06
8.9164763e-06
9.998135e-06
1.1252696e-05
1.2718181e-05
1.4442416e-05
1.6485559e-05
1.892283e-05
2.1846614e-05
2.5372312e-05
2.9642049e-05
3.5061199e-05
4.144008e-05
4.9233533e-05
5.8774821e-05
7.0472774e-05
8.4831261e-05
0.00010247044
0.000124156
0.00015219174
0.00018526914
0.00022598574
0.00027613177
0.000337921
0.00041793651
0.00051254207
0.0006292532
0.00078075881
0.00095997452
0.0010105553
0.0010097441
0.0010089048
0.0010080381
0.0010071381
0.0010062025
0.0010052339
0.001004242
0.0010032591
0.0010024875
0.0010018657
0.0010013765
0.0010009971
0.0010007052
0.0010004763
0.0010003256
0.0010002126
0.0010001158
0.0010000371
0.0010000245
0.0010000581
0.0010000503
9.8165999e-08
2.5371277e-06
1.5505924e-06
1.5530551e-06
1.5047046e-06
1.2773785e-06
1.3210551e-06
1.2381172e-06
1.2538468e-06
1.2857295e-06
1.3486877e-06
1.4358842e-06
1.544275e-06
1.6725239e-06
1.8208852e-06
1.9903685e-06
2.1818398e-06
2.3982626e-06
2.6414739e-06
2.9140228e-06
3.2188355e-06
3.5592826e-06
3.9392778e-06
4.3634288e-06
4.837247e-06
5.3674339e-06
5.9622508e-06
6.6319673e-06
7.3809436e-06
8.2385566e-06
9.2192789e-06
1.0348556e-05
1.1658465e-05
1.3189285e-05
1.4991454e-05
1.7197829e-05
1.9768186e-05
2.2854667e-05
2.6580127e-05
3.1096181e-05
3.6589648e-05
4.3290372e-05
5.1482434e-05
6.1515704e-05
7.382134e-05
8.8931075e-05
0.0001074996
0.00013147283
0.00015977429
0.0001946011
0.00023748246
0.00029030884
0.00035878416
0.00043966186
0.00053942196
0.00066255833
0.0008223774
0.0010109632
0.0010101217
0.0010092835
0.0010084166
0.0010075251
0.0010066034
0.0010056461
0.0010046521
0.0010036518
0.0010028012
0.0010021129
0.0010015621
0.0010011259
0.0010007898
0.0010005538
0.0010003511
0.0010002263
0.0010001333
0.0010000527
0.0009999945
0.0010000037
0.0010000542
0.001000058
9.8189689e-08
2.0410702e-06
1.319741e-06
1.1799471e-06
1.2359742e-06
1.0296957e-06
1.0561506e-06
1.0365652e-06
1.0809255e-06
1.1421588e-06
1.2288509e-06
1.3352112e-06
1.4601784e-06
1.6039045e-06
1.7674517e-06
1.9523208e-06
2.1600424e-06
2.3931817e-06
2.6539166e-06
2.9449077e-06
3.2691665e-06
3.6301423e-06
4.0318337e-06
4.4789477e-06
4.9771204e-06
5.5332155e-06
6.1557233e-06
6.8552609e-06
7.6451949e-06
8.5424309e-06
9.5683434e-06
1.0750011e-05
1.2121566e-05
1.3725946e-05
1.5616919e-05
1.7861592e-05
2.0543495e-05
2.376659e-05
2.7659572e-05
3.2381802e-05
3.8130179e-05
4.5147012e-05
5.3728778e-05
6.4242902e-05
7.7140956e-05
9.3749647e-05
0.00011336293
0.000137475
0.00016713771
0.00020365121
0.000248621
0.00030688697
0.00037570207
0.00046056632
0.00056529954
0.00070139814
0.00086243083
0.0010105613
0.001009707
0.0010088433
0.0010079516
0.0010070344
0.0010060916
0.0010051243
0.0010041377
0.0010031679
0.0010024158
0.001001803
0.0010013147
0.0010009282
0.001000632
0.0010004051
0.0010002515
0.0010001432
0.0010000672
0.001000004
0.00099996694
0.00099999164
0.0010000498
0.0010000562
1.0147143e-07
1.5837525e-06
1.1304203e-06
9.0788524e-07
1.0796876e-06
8.25238e-07
8.7442199e-07
8.9973238e-07
9.6655887e-07
1.0505048e-06
1.1541576e-06
1.2751035e-06
1.4137359e-06
1.5710511e-06
1.7485185e-06
1.9478537e-06
2.1710064e-06
2.4200071e-06
2.6974893e-06
3.0060936e-06
3.3488961e-06
3.7294182e-06
4.151745e-06
4.6206915e-06
5.1420312e-06
5.7228067e-06
6.3717475e-06
7.0998409e-06
7.9209632e-06
8.8527421e-06
9.91749e-06
1.1143547e-05
1.2566669e-05
1.4231867e-05
1.6195519e-05
1.8528011e-05
2.1316877e-05
2.4670671e-05
2.8723704e-05
3.3641886e-05
3.9900487e-05
4.7270366e-05
5.6283387e-05
6.7324666e-05
8.0867793e-05
9.7496421e-05
0.00011793048
0.00014305833
0.00017397364
0.00021401531
0.00026124818
0.00031944072
0.0003911847
0.00047969984
0.00059473678
0.00073078529
0.00089899991
0.0010101823
0.0010093152
0.0010084338
0.0010075246
0.0010065868
0.0010056188
0.0010046259
0.0010036378
0.0010027863
0.0010021002
0.0010015485
0.0010011083
0.0010007606
0.0010005064
0.0010002985
0.0010001674
0.0010000747
0.0010000093
0.0009999618
0.00099994593
0.00099998688
0.0010000522
0.0010000587
1.0816761e-07
1.236858e-06
9.6793521e-07
7.6498198e-07
7.7104582e-07
7.0568814e-07
7.5186339e-07
8.1233787e-07
8.9595381e-07
9.9559285e-07
1.1119615e-06
1.2449771e-06
1.3957037e-06
1.565452e-06
1.7558105e-06
1.9685518e-06
2.2056586e-06
2.46934e-06
2.7620704e-06
3.0866344e-06
3.4461913e-06
3.8443639e-06
4.285363e-06
4.7741638e-06
5.3167516e-06
5.9183443e-06
6.5910352e-06
7.3448378e-06
8.2014594e-06
9.1677838e-06
1.0272133e-05
1.1544225e-05
1.302153e-05
1.4751147e-05
1.6792032e-05
1.9217683e-05
2.2119431e-05
2.5610451e-05
2.983067e-05
3.4952837e-05
4.1189993e-05
4.8804706e-05
5.8120274e-05
6.9533005e-05
8.3532941e-05
0.00010072326
0.00012293255
0.00014911036
0.00018130946
0.00022094204
0.0002697549
0.00032991517
0.00040411219
0.00050040169
0.00061434608
0.00075519144
0.00092947405
0.00100984
0.001008958
0.0010080604
0.0010071394
0.0010061934
0.0010052209
0.0010042277
0.0010032527
0.0010024825
0.001001854
0.0010013508
0.0010009495
0.0010006334
0.0010004128
0.0010002122
0.0010000943
0.0010000205
0.00099995957
0.00099992279
0.00099992108
0.00099997332
0.0010000465
0.0010000554
1.2257126e-07
1.2088661e-06
8.0950219e-07
5.679906e-07
6.125644e-07
6.1537471e-07
6.7928341e-07
7.5819594e-07
8.5504767e-07
9.6659106e-07
1.0938412e-06
1.2376091e-06
1.3991847e-06
1.5799727e-06
1.7815891e-06
2.0058334e-06
2.2547182e-06
2.5304944e-06
2.8356872e-06
3.1731402e-06
3.5460764e-06
3.958185e-06
4.4137451e-06
4.9178026e-06
5.4764225e-06
6.0970334e-06
6.7888867e-06
7.5636439e-06
8.4361241e-06
9.4251965e-06
1.0554854e-05
1.1855563e-05
1.3365785e-05
1.5133881e-05
1.7220366e-05
1.9700651e-05
2.2668387e-05
2.6239521e-05
3.0557279e-05
3.5798284e-05
4.2180209e-05
5.0329168e-05
5.993364e-05
7.1696533e-05
8.6122087e-05
0.00010383066
0.00012558797
0.00015233964
0.0001852546
0.0002257775
0.00027570194
0.00034036572
0.00041685239
0.00051126876
0.00062793597
0.00077225714
0.00095099094
0.0010095624
0.0010086625
0.0010077448
0.0010068056
0.0010058442
0.0010048626
0.0010038767
0.0010029666
0.0010022495
0.001001667
0.0010012023
0.0010008335
0.0010005446
0.0010003276
0.0010001681
0.001000026
0.00099997973
0.00099992137
0.00099989124
0.00099989419
0.00099994375
0.0010000141
0.0010000347
1.1487681e-07
7.1598762e-07
6.4119666e-07
4.7019471e-07
5.1324436e-07
5.5916008e-07
6.3789636e-07
7.3024371e-07
8.3760162e-07
9.5929422e-07
1.0964042e-06
1.2499764e-06
1.4213276e-06
1.6119201e-06
1.8234041e-06
2.0576265e-06
2.3166542e-06
2.6027677e-06
2.9186014e-06
3.2670469e-06
3.6513954e-06
4.0754049e-06
4.5434254e-06
5.060577e-06
5.6330064e-06
6.2682374e-06
6.9756393e-06
7.7670317e-06
8.6645154e-06
9.6763177e-06
1.0831765e-05
1.2162084e-05
1.3706644e-05
1.5514904e-05
1.7648693e-05
2.0185015e-05
2.3219439e-05
2.6870249e-05
3.1283543e-05
3.6639487e-05
4.3159979e-05
5.1118019e-05
6.0849231e-05
7.276792e-05
8.7383856e-05
0.00010532593
0.00012737048
0.00015583243
0.00018943077
0.00023078707
0.00028173336
0.00034454237
0.00042204267