/*--------------------------------*- C++ -*----------------------------------*\
| =========                 |                                                 |
| \\      /  F ield         | OpenFOAM: The Open Source CFD Toolbox           |
|  \\    /   O peration     | Version:  2512                                  |
|   \\  /    A nd           | Website:  www.openfoam.com                      |
|    \\/     M anipulation  |                                                 |
\*---------------------------------------------------------------------------*/
FoamFile
{
    version     2.0;
    format      ascii;
    arch        "LSB;label=32;scalar=64";
    class       volScalarField;
    location    "0.149";
    object      omega;
}
// * * * * * * * * * * * * * * * * * * * * * * * * * * * * * * * * * * * * * //

dimensions      [0 0 -1 0 0 0 0];

internalField   nonuniform List<scalar> 
16000
(
1462.6995
1943.2864
1082.1229
643.5444
452.89784
315.33879
239.06293
180.35312
145.34792
117.68374
100.07287
85.668873
75.022754
66.107802
58.835906
52.70364
47.525351
43.106822
39.30893
36.020324
33.157539
30.649993
28.439558
26.479919
24.733687
23.171785
21.770126
20.510108
19.375964
18.353308
17.429118
16.593122
15.837141
15.154247
14.538529
13.984492
13.486965
13.041062
12.6427
12.288443
11.974422
11.696556
11.451878
11.237687
11.050918
10.888446
10.747847
10.626821
10.523159
10.434768
10.359772
10.296528
10.243504
10.199354
10.162906
10.133261
10.109819
10.092328
10.081078
10.076714
10.077192
10.077234
10.076675
10.075759
10.074362
10.072427
10.06989
10.066697
10.062777
10.058015
10.052198
10.044912
10.035837
10.026675
10.01969
10.014712
10.011822
10.018193
10.012634
10.027444
1463.4366
1921.2109
1070.353
643.75548
453.20505
318.24941
240.18237
182.25243
146.19739
118.72892
100.62604
86.24219
75.389981
66.426438
59.066626
52.883153
47.657011
43.202897
39.377066
36.066232
33.186128
30.665903
28.446437
26.480703
24.73027
23.165678
21.762134
20.500679
19.36562
18.342813
17.418965
16.583448
15.827937
15.145392
14.529932
13.976129
13.478919
13.033357
12.635169
12.281035
11.967382
11.68991
11.445493
11.231551
11.045193
10.883145
10.742937
10.622287
10.51901
10.431012
10.356381
10.293487
10.240794
10.196957
10.160778
10.131317
10.107934
10.090283
10.07841
10.072859
10.07285
10.072841
10.072177
10.071163
10.069685
10.067683
10.065087
10.061838
10.057865
10.053053
10.04722
10.040006
10.031114
10.022515
10.015999
10.011222
10.0093
10.013015
10.013185
10.028243
1478.3201
1908.8612
1057.3663
639.94804
450.05689
318.50827
239.15088
182.46374
145.78447
118.90755
100.49039
86.269018
75.298531
66.338075
58.943121
52.746642
47.508452
43.048207
39.220411
35.910017
33.032327
30.516621
28.303182
26.344735
24.602061
23.0456
21.650093
20.396301
19.268549
18.253045
17.33643
16.507806
15.758775
15.082203
14.472251
13.923538
13.431135
12.990141
12.596101
12.245668
11.935649
11.661626
11.420293
11.209089
11.025378
10.865775
10.727765
10.609082
10.507578
10.421185
10.347972
10.286333
10.234742
10.191876
10.156535
10.12776
10.104891
10.087561
10.075693
10.069547
10.068928
10.068786
10.067968
10.066804
10.065192
10.063071
10.060366
10.057014
10.052943
10.048034
10.042125
10.034918
10.02615
10.018186
10.012183
10.007896
10.006444
10.009129
10.013178
10.028153
1492.8045
1905.4046
1046.3924
636.3703
446.50961
318.57157
237.82533
182.53298
145.231
118.98636
100.30299
86.233956
75.165915
66.202476
58.779288
52.571488
47.32449
42.860507
39.033172
35.725507
32.852231
30.34291
28.137189
26.187677
24.454291
22.907424
21.521375
20.276609
19.157378
18.15029
17.242
16.421317
15.679782
15.010141
14.406603
13.863814
13.37697
12.941274
12.552118
12.205993
11.90015
11.630113
11.392387
11.184333
11.003638
10.846825
10.711318
10.594861
10.495342
10.410743
10.3391
10.278845
10.228457
10.186642
10.152209
10.124179
10.101868
10.084889
10.073115
10.066664
10.065365
10.065037
10.064033
10.062685
10.060906
10.058635
10.055793
10.052312
10.048118
10.04309
10.037074
10.029859
10.021194
10.013869
10.008415
10.004656
10.003446
10.005745
10.011867
10.025218
1500.8185
1911.4439
1037.8614
632.94691
442.2127
317.89196
235.81993
182.11248
144.30462
118.78894
99.928846
86.023426
74.895414
65.935561
58.501268
52.292933
47.047933
42.589113
38.770181
35.472346
32.609651
30.112182
27.918994
25.982769
24.26263
22.728996
21.355791
20.123231
19.015399
18.019333
17.121828
16.3114
15.579559
14.918915
14.323731
13.788666
13.309025
12.88016
12.497399
12.156908
11.856412
11.591461
11.358408
11.154393
10.977498
10.824188
10.691816
10.578139
10.481064
10.398661
10.328929
10.270343
10.221396
10.180826
10.147465
10.120324
10.098699
10.082187
10.070629
10.064038
10.062187
10.061612
10.060386
10.058819
10.056837
10.054381
10.051369
10.047728
10.043382
10.038211
10.032053
10.024807
10.016323
10.009644
10.004772
10.001534
10.000501
10.002778
10.010355
10.020378
1515.5935
1926.2374
1033.9736
630.17647
438.33202
316.58812
233.34356
181.28534
143.11637
118.35505
99.412541
85.659464
74.506381
65.554423
58.123374
51.923969
46.690041
42.243987
38.440132
35.158198
32.311381
29.830498
27.654045
25.734803
24.031404
22.514239
21.1569
19.939423
18.84562
17.862948
16.978485
16.180433
15.460311
14.810563
14.225519
13.699845
13.228922
12.808269
12.433283
12.099686
11.805599
11.546694
11.319275
11.1201
10.947685
10.798497
10.669804
10.559381
10.465137
10.385266
10.317724
10.261043
10.213727
10.174556
10.142393
10.116252
10.09541
10.079447
10.068193
10.061588
10.059322
10.05845
10.056974
10.055157
10.052941
10.05027
10.047062
10.043235
10.038714
10.033382
10.027061
10.019744
10.011578
10.005552
10.001284
9.9985545
9.9977064
10.000072
10.008355
10.016806
1526.9583
1946.8298
1033.8292
627.52194
434.52686
314.65426
230.78385
180.08405
141.79534
117.69171
98.763358
85.140776
73.994769
65.056602
57.641995
51.461214
46.247341
41.821803
38.039619
34.779809
31.954362
29.495009
27.339809
25.440976
23.758031
22.26081
20.922586
19.723296
18.646395
17.679707
16.810741
16.027371
15.321165
14.684376
14.111404
13.596918
13.13636
12.725388
12.359613
12.03441
11.747851
11.495955
11.275153
11.081666
10.914406
10.769945
10.645465
10.538764
10.447716
10.370696
10.305604
10.251044
10.205535
10.167902
10.137051
10.112008
10.092036
10.076697
10.065815
10.059296
10.056739
10.05553
10.053777
10.051683
10.049206
10.046295
10.042866
10.038831
10.034111
10.028605
10.022114
10.014666
10.007035
10.001663
9.9980065
9.9957763
9.9951264
9.9975711
10.005848
10.012871
1544.512
1970.4776
1034.7045
624.50711
430.69314
312.07227
228.16278
178.64327
140.31946
116.80725
97.996321
84.474918
73.36061
64.443234
57.056447
50.903467
45.718198
41.320928
37.566198
34.334696
31.536232
29.103452
26.974402
25.097529
23.438909
21.96536
20.649767
19.472062
18.41525
17.467421
16.616686
15.850556
15.160712
14.539166
13.980401
13.479086
13.030717
12.631043
12.275943
11.961395
11.683533
11.439587
11.226353
11.039513
10.878049
10.738872
10.619106
10.516559
10.429031
10.355142
10.292724
10.240469
10.196918
10.160936
10.131487
10.107621
10.088591
10.073939
10.063479
10.057119
10.054382
10.052806
10.050753
10.048362
10.045602
10.042427
10.038757
10.034496
10.029559
10.023864
10.017227
10.009593
10.002738
9.9980195
9.9949683
9.9932361
9.9928137
9.9952637
10.00315
10.009776
1555.1178
1994.8662
1031.4668
620.69083
425.75166
308.79816
224.53724
176.80339
138.42631
115.74459
97.105951
83.659732
72.596167
63.709075
56.36133
50.24472
45.096693
40.736051
37.011661
33.814599
31.049088
28.648282
26.551179
24.705124
23.0753
21.629608
20.340464
19.187939
18.154563
17.228542
16.398787
15.652445
14.981377
14.37731
13.834814
13.348561
12.914103
12.527274
12.184011
11.880271
11.612441
11.377464
11.172735
10.994033
10.83899
10.705596
10.591078
10.493078
10.409358
10.338832
10.279271
10.22947
10.187993
10.153749
10.125769
10.103136
10.085103
10.071188
10.061188
10.055029
10.052199
10.050238
10.047868
10.045164
10.042103
10.038646
10.034718
10.03022
10.025053
10.019148
10.012411
10.004746
9.9987344
9.9946665
9.9922018
9.9909643
9.9908304
9.9932549
10.000559
10.006933
1566.8547
2018.0264
1021.8911
615.81597
419.09908
305.11406
220.14933
174.52522
136.58427
114.48823
96.082487
82.689892
71.69343
62.846135
55.548534
49.472003
44.368794
40.053648
36.374211
33.220186
30.495313
28.132933
26.073459
24.26273
22.666468
21.252987
19.994297
18.870739
17.864362
16.96329
16.157346
15.433467
14.783716
14.199462
13.675377
13.206129
12.78732
12.414874
12.084885
11.793371
11.536636
11.311481
11.115828
10.945157
10.797242
10.670091
10.561686
10.468588
10.388982
10.321999
10.265444
10.2182
10.178882
10.146434
10.119959
10.098591
10.081591
10.068453
10.058941
10.052999
10.050133
10.04778
10.045081
10.042053
10.038681
10.034929
10.03073
10.025985
10.020587
10.014455
10.007629
10.000286
9.9950606
9.9916351
9.9897303
9.9889771
9.9891893
9.9915855
9.9981288
10.004263
1580.3962
2039.1356
1011.653
609.89871
410.79424
301.02305
215.61243
172.02497
134.61753
113.05265
94.912812
81.558407
70.640526
61.833668
54.595243
48.580074
43.535523
39.277415
35.651662
32.549294
29.872756
27.555589
25.539959
23.770388
22.212744
20.836018
19.61203
18.521442
17.545847
16.673089
15.893585
15.19491
14.569082
14.007023
13.503504
13.053191
12.651742
12.295146
11.979671
11.701426
11.456806
11.242404
11.056523
10.89461
10.754287
10.633536
10.530896
10.443052
10.368142
10.304835
10.251437
10.206823
10.169713
10.139087
10.114126
10.09403
10.078075
10.065741
10.05674
10.051012
10.048127
10.045387
10.042353
10.038999
10.035309
10.031254
10.026775
10.021776
10.016152
10.009804
10.002834
9.9962187
9.9917491
9.9889483
9.9875712
9.9872815
9.9878649
9.9902466
9.9959995
10.001708
1592.6735
2059.5511
996.86281
602.33025
401.22912
296.51035
210.87867
169.2757
132.62835
111.43789
93.569187
80.234308
69.399099
60.66452
53.504359
47.565052
42.592689
38.403524
34.841993
31.800749
29.180999
26.916225
24.950868
23.228475
21.71496
20.379399
19.194611
18.14123
17.200404
16.359682
15.607963
14.937261
14.338019
13.800583
13.319816
12.89037
12.507977
12.168674
11.868939
11.604995
11.37337
11.171236
10.995605
10.842845
10.710545
10.596556
10.499898
10.417332
10.346788
10.287285
10.237389
10.195487
10.160608
10.131803
10.108337
10.089494
10.074573
10.063052
10.054589
10.049058
10.046129
10.043016
10.039647
10.035967
10.031959
10.027599
10.022835
10.017579
10.011732
10.00523
9.998133
9.9925616
9.988818
9.9866183
9.9857343
9.9858771
9.9868364
9.9892331
9.994279
9.9995049
1604.9356
2077.8871
978.23778
593.88352
391.37375
291.59786
206.07427
166.32645
130.58343
109.62284
91.985611
78.699919
67.973152
59.331808
52.268669
46.422574
41.536902
37.429935
33.943926
30.973584
28.419759
26.2153
24.306541
22.637781
21.174558
19.882939
18.742021
17.730302
16.828347
16.023939
15.305925
14.665877
14.095687
13.585101
13.129017
12.722056
12.360087
12.039158
11.756005
11.50706
11.288764
11.098217
10.933318
10.790078
10.666137
10.559619
10.468923
10.391746
10.325792
10.26998
10.223194
10.184275
10.151671
10.124675
10.10266
10.085024
10.071103
10.060381
10.052483
10.047148
10.044088
10.040626
10.036927
10.032928
10.028609
10.023945
10.018898
10.013387
10.007315
10.000728
9.9940298
9.9893182
9.9862749
9.9846475
9.984223
9.9847577
9.9860736
9.9885273
9.9930083
9.9978755
1617.0863
2090.3175
955.70662
584.86302
381.01909
286.32579
201.27558
163.18123
128.41218
107.51076
90.144503
76.943078
66.348846
57.826474
50.881458
45.147455
40.364804
36.354143
32.956317
30.066964
27.589025
25.453857
23.605864
21.99737
20.591488
19.353553
18.261792
17.296521
16.437696
15.673173
14.991608
14.384759
13.845428
13.363556
12.93377
12.55059
12.210124
11.908391
11.642373
11.408861
11.204392
11.025944
10.871788
10.738112
10.622448
10.522749
10.438017
10.366175
10.305209
10.253202
10.209404
10.173051
10.142941
10.117773
10.097157
10.080661
10.067687
10.057718
10.050399
10.045303
10.041968
10.038183
10.034163
10.029857
10.025237
10.020278
10.01495
10.009199
10.00293
9.996214
9.9904298
9.9865089
9.9841174
9.983029
9.9830334
9.9839127
9.9855427
9.9881154
9.99217
9.9967421
1629.2757
2091.5123
929.46613
575.20365
370.28178
280.7218
196.55671
159.75849
125.99274
105.10682
88.017236
74.945125
64.513038
56.137919
49.335034
43.734411
39.07336
35.173918
31.878714
29.07808
26.686391
24.630845
22.857977
21.317831
19.976253
18.797685
17.76039
16.845674
16.033854
15.312631
14.67046
14.099028
13.590515
13.138636
12.736324
12.377812
12.059586
11.77762
11.529044
11.311149
11.120596
10.955098
10.811577
10.687344
10.58004
10.487336
10.408345
10.34145
10.28485
10.237038
10.196239
10.162252
10.134253
10.111112
10.091878
10.076441
10.06435
10.055059
10.048283
10.043523
10.039745
10.035657
10.031332
10.026732
10.021828
10.016589
10.010987
10.005
9.9986314
9.9921005
9.9873306
9.9841341
9.9823373
9.9817475
9.9821529
9.9833293
9.9852037
9.9879634
9.9918672
9.996224
1641.6416
2070.0529
899.77831
564.9346
359.19871
274.79138
191.91114
155.9298
123.24734
102.36547
85.5733
72.682747
62.449206
54.254695
47.621848
42.17797
37.660135
33.883818
30.707385
28.016581
25.7253
23.760731
22.071881
20.608313
19.337582
18.224597
17.246798
16.384492
15.622671
14.947311
14.346532
13.812629
13.338045
12.916577
12.542233
12.208651
11.912812
11.65072
11.419441
11.216991
11.039766
10.885825
10.752814
10.637778
10.538667
10.453463
10.380139
10.318
10.265367
10.221221
10.183755
10.152057
10.125926
10.10452
10.086832
10.072393
10.061117
10.052431
10.046075
10.04158
10.037412
10.03303
10.028417
10.023541
10.018371
10.012874
10.007023
10.000809
9.9943579
9.9886517
9.9847161
9.9821874
9.9809214
9.9807821
9.9815583
9.9829952
9.9850338
9.9879849
9.9919495
9.996208
1654.2604
2034.7847
868.81262
554.10112
347.82592
268.44666
187.02988
151.66625
120.06081
99.237583
82.777727
70.130304
60.140862
52.166993
45.735556
40.46931
36.118655
32.496783
29.460089
26.895004
24.718605
22.85679
21.26131
19.882199
18.685859
17.643122
16.729374
15.925192
15.215309
14.58746
14.029131
13.533173
13.09238
12.701054
12.354235
12.045286
11.771458
11.529044
11.314774
11.127384
10.963247
10.820438
10.697365
10.591051
10.499419
10.420812
10.353545
10.295999
10.24706
10.206221
10.171679
10.142519
10.118092
10.098217
10.081869
10.068529
10.057998
10.049871
10.04382
10.039465
10.034958
10.030295
10.025412
10.020279
10.014862
10.009131
10.003064
9.9967117
9.9903807
9.9857539
9.9825765
9.9806524
9.9798535
9.9801086
9.9812145
9.9828889
9.985042
9.9881267
9.9922902
9.9965709
1666.9604
2003.6424
837.26886
542.62691
336.16432
261.14631
181.98463
146.86166
116.31564
95.662642
79.593606
67.26279
57.572656
49.867363
43.665191
38.622005
34.472606
31.030343
28.155379
25.733571
23.685504
21.937558
20.440436
19.152672
18.03867
17.069533
16.22199
15.477082
14.819666
14.239298
13.723386
13.265108
12.857723
12.49564
12.174091
11.888961
11.636277
11.412945
11.216121
11.043098
10.891598
10.759346
10.645513
10.54744
10.462868
10.390263
10.328149
10.275166
10.230076
10.192225
10.160338
10.133415
10.110821
10.092277
10.077147
10.064821
10.05498
10.047402
10.041589
10.037174
10.032388
10.027457
10.022323
10.016954
10.011312
10.005375
9.9991313
9.9927083
9.9871853
9.9833619
9.9808742
9.9795024
9.9791147
9.9797035
9.9810804
9.9829648
9.985245
9.9884298
9.9927191
9.9970931
1679.2411
1955.7073
804.64397
530.20587
324.1092
252.6528
176.57543
141.39413
111.89797
91.576971
75.986819
64.060446
54.72822
47.344439
41.43947
36.661771
32.748857
29.513309
26.8204
24.557785
22.645806
21.021256
19.632786
18.440019
17.410137
16.515797
15.734728
15.048963
14.443211
13.907612
13.432896
13.010992
12.635787
12.302241
12.006053
11.743315
11.510511
11.304632
11.12313
10.963728
10.824365
10.703001
10.597706
10.507218
10.429209
10.362201
10.304839
10.255932
10.214412
10.179307
10.149823
10.124974
10.104112
10.086742
10.072652
10.061167
10.052031
10.044986
10.039463
10.034732
10.029717
10.024538
10.01917
10.013585
10.007742
10.001624
9.995314
9.9891109
9.9845928
9.9814599
9.9795577
9.9786901
9.9786884
9.9795422
9.9811246
9.9831668
9.9855797
9.9888434
9.993119
9.9975271
1690.2989
1893.8496
770.3657
516.33344
310.89121
242.79668
170.47968
135.11748
106.70513
86.923214
71.935438
60.509248
51.630508
44.651325
39.099166
34.630798
30.987924
27.982225
25.483859
23.392971
21.630168
20.133969
18.856487
17.75989
16.813769
15.992912
15.276188
14.64606
14.090752
13.599411
13.16365
12.776161
12.431188
12.124112
11.851204
11.609187
11.394875
11.205353
11.038233
10.891283
10.76266
10.650756
10.554176
10.470556
10.398533
10.336644
10.283606
10.23831
10.199798
10.167522
10.140151
10.117116
10.097782
10.081661
10.06849
10.057726
10.049139
10.042515
10.037238
10.032191
10.026971
10.021573
10.015986
10.0102
10.004192
9.9979234
9.991555
9.9863031
9.9825391
9.9800149
9.9785816
9.9781252
9.9785052
9.9795893
9.9813189
9.9834542
9.9859791
9.9893266
9.9935318
9.9978889
1698.9255
1836.0093
733.47387
500.40188
296.78119
231.36486
163.22477
127.86675
100.66691
81.680394
67.443255
56.65894
48.348398
41.852055
36.707137
32.583876
29.236826
26.474202
24.185843
22.272915
20.661757
19.295061
18.127995
17.125526
16.260034
15.509037
14.852163
14.276038
13.767716
13.317283
12.91762
12.561983
12.245059
11.962504
11.710896
11.487537
11.289968
11.115241
10.96127
10.825887
10.707239
10.604369
10.514897
10.437548
10.370887
10.313621
10.264531
10.222592
10.186948
10.156861
10.131398
10.109956
10.09198
10.076996
10.064659
10.054536
10.046388
10.040039
10.034908
10.029598
10.024188
10.018603
10.012825
10.006842
10.000686
9.9944402
9.988365
9.984037
9.9809615
9.9789844
9.9779425
9.9777695
9.9785087
9.979791
9.9816317
9.9838143
9.9864013
9.9898089
9.9939361
9.9981566
1702.3433
1775.0469
693.73984
480.67816
281.55895
218.03811
154.34333
119.5191
93.799462
75.910645
62.60589
52.6255
44.983348
39.03523
34.337959
30.581762
27.540065
25.034267
22.958073
21.223031
19.761102
18.520143
17.459315
16.546572
15.756663
15.069584
14.469172
13.941873
13.476709
13.063538
12.6965
12.369632
12.078137
11.818002
11.585885
11.379179
11.196511
11.034882
10.892522
10.767597
10.658306
10.56292
10.480013
10.408225
10.346301
10.293107
10.247546
10.208503
10.175503
10.147398
10.123589
10.103506
10.086684
10.072737
10.061143
10.051613
10.043869
10.037679
10.032537
10.027018
10.02142
10.015669
10.009749
10.003615
9.9972689
9.9909546
9.9859034
9.9822284
9.9797453
9.9782683
9.977627
9.9775841
9.9786279
9.9800834
9.9820118
9.9842378
9.9868689
9.9902916
9.9943421
9.9983765
1695.7967
1708.3059
650.62764
454.83413
265.04811
202.48373
143.61633
110.12406
86.273834
69.755615
57.616054
48.559028
41.654713
36.29479
32.066871
28.686166
25.948904
23.697523
21.82838
20.264035
18.943468
17.820315
16.858294
16.028832
15.309278
14.681661
14.131636
13.647455
13.219385
12.839542
12.50141
12.199918
11.930818
11.690619
11.476365
11.285517
11.115898
10.9657
10.833185
10.716806
10.615087
10.526516
10.449415
10.382601
10.324853
10.275144
10.232807
10.196485
10.165474
10.139127
10.116793
10.097879
10.082109
10.068891
10.057925
10.048908
10.041598
10.035582
10.030196
10.024535
10.018758
10.012831
10.006768
10.000579
9.9943101
9.988246
9.9839634
9.9808576
9.9788243
9.9777142
9.9773716
9.9778058
9.9788074
9.9804122
9.9824032
9.9846841
9.9873727
9.9907737
9.994695
9.9985016
1673.26
1630.6308
604.37644
422.16161
247.27481
184.53341
131.30227
100.03237
78.451566
63.543864
52.693284
44.621588
38.482038
33.720352
29.962279
26.95055
24.504692
22.494351
20.818943
19.412103
18.220519
17.203783
16.330341
15.575216
14.918387
14.343744
13.838498
13.392773
12.997922
12.647003
12.334022
12.054495
11.804619
11.581287
11.381882
11.204161
11.04615
10.906072
10.782308
10.673364
10.577933
10.495188
10.423124
10.36067
10.306715
10.260249
10.220361
10.186222
10.156971
10.132049
10.111048
10.09322
10.078177
10.065569
10.055087
10.046492
10.039419
10.033532
10.027978
10.022212
10.016313
10.010241
10.003996
9.9976218
9.9913557
9.9862337
9.982488
9.9798815
9.9782424
9.9774461
9.9772452
9.9779437
9.9790734
9.9807401
9.9827628
9.9850855
9.9878399
9.9912392
9.9950521
9.9986451
1626.5829
1537.9842
556.18171
383.44417
229.35641
164.49845
118.11542
89.877084
70.785702
57.592
48.05511
40.967361
35.577403
31.392837
28.082444
25.419441
23.245605
21.448613
19.946959
18.679694
17.60142
16.677353
15.880421
15.189193
14.586396
14.057787
13.590917
13.177846
12.810885
12.484585
12.192961
11.932085
11.698544
11.489548
11.30274
11.136095
10.98783
10.856341
10.740151
10.637885
10.548252
10.470031
10.402043
10.343002
10.291934
10.247873
10.210006
10.177781
10.150138
10.12654
10.106448
10.089413
10.075013
10.062881
10.052819
10.044438
10.03751
10.03166
10.025945
10.020082
10.014103
10.007982
10.001711
9.9953416
9.9891806
9.984695
9.9814005
9.9791805
9.9778602
9.9773126
9.9772087
9.9781454
9.9793607
9.9810597
9.9830834
9.985413
9.9881864
9.991557
9.9952843
9.9987162
1547.788
1434.7618
507.17333
343.47369
205.43856
145.23267
104.98585
80.332019
63.718582
52.203292
43.90978
37.746196
33.047466
29.385178
26.473702
24.118762
22.185101
20.57664
19.223935
18.076049
17.093968
16.247984
15.514825
14.876027
14.316713
13.824753
13.390157
13.004645
12.661499
12.355126
12.080888
11.835139
11.614815
11.417388
11.240715
11.082946
10.942438
10.817698
10.707334
10.610036
10.52458
10.449885
10.385241
10.329042
10.280427
10.238484
10.202403
10.171446
10.144949
10.12227
10.102925
10.086484
10.07266
10.060958
10.051124
10.042903
10.036039
10.030161
10.024285
10.018288
10.012182
10.005955
9.9996262
9.9933239
9.9876754
9.9836017
9.9806542
9.9787119
9.9776242
9.9772716
9.9775142
9.9783296
9.9796495
9.9813586
9.9833789
9.9856969
9.9884285
9.9916792
9.9952611
9.9986344
1439.6338
1390.0361
461.36438
295.9581
181.73252
127.20728
93.145919
71.893068
57.611138
47.662875
40.469244
35.105025
30.992827
27.765646
25.18165
23.077005
21.337622
19.881906
18.649315
17.597688
16.693386
15.910772
15.229605
14.633698
14.109921
13.647542
13.237676
12.87301
12.547608
12.256999
11.996265
11.762221
11.552057
11.363472
11.194507
11.043467
10.908848
10.789278
10.683477
10.590231
10.508369
10.436746
10.374237
10.319912
10.272826
10.232133
10.197063
10.166954
10.141339
10.119382
10.100649
10.084696
10.071153
10.059698
10.050045
10.04194
10.035127
10.029225
10.023237
10.017131
10.010905
10.004562
9.9981479
9.9918791
9.9866993
9.9829166
9.9802273
9.9784873
9.9775566
9.9772708
9.9776801
9.9785634
9.9799137
9.9816351
9.9836629
9.9859899
9.9886892
9.9918128
9.9952202
9.9985314
1313.1589
1218.9692
421.82356
253.75259
159.75233
112.21005
83.361844
65.086016
52.788141
44.165024
37.882212
33.154404
29.496669
26.600337
24.2615
22.341405
20.742967
19.396592
18.251272
17.26882
16.42021
15.682852
15.038854
14.473765
13.975717
13.534835
13.143094
12.793753
12.481249
12.200988
11.949207
11.722768
11.519092
11.336016
11.171707
11.024573
10.893194
10.776277
10.672613
10.581074
10.500639
10.430578
10.369333
10.316071
10.269874
10.229922
10.195459
10.165804
10.140347
10.118552
10.099935
10.084074
10.070602
10.059197
10.049581
10.041502
10.034706
10.028811
10.022817
10.016686
10.010419
10.004013
9.9975237
9.9912206
9.9862653
9.9826312
9.9800758
9.9784523
9.9776377
9.977423
9.9778497
9.9787745
9.9801362
9.9818619
9.9838988
9.9862357
9.9889037
9.9919158
9.9951745
9.9984478
1202.6726
1094.8541
389.56817
223.27286
143.34009
101.1869
76.117061
60.127469
49.337985
41.707383
36.091696
31.825645
28.494797
25.834973
23.670444
21.880836
20.381341
19.110781
18.02407
17.087318
16.274557
15.565506
14.944035
14.397189
13.91485
13.486703
13.1055
12.764869
12.459579
12.185276
11.938371
11.715905
11.51543
11.334903
11.172592
11.026991
10.896762
10.780677
10.677586
10.586392
10.506041
10.435521
10.37387
10.320156
10.27351
10.23312
10.198243
10.1682
10.142383
10.120248
10.101314
10.085158
10.071411
10.05975
10.049894
10.041594
10.034604
10.028582
10.022693
10.016639
10.010475
10.004186
9.9978181
9.9915999
9.9865333
9.9828533
9.9802588
9.978612
9.9777865
9.9775708
9.9780006
9.9789186
9.9802738
9.9819961
9.9840412
9.9863881
9.9890351
9.9919682
9.9951242
9.9983873
1156.8247
1040.9179
365.75568
206.36256
132.56175
93.682937
70.698589
56.170552
46.385692
39.45625
34.341152
30.437836
27.377289
24.923274
22.918599
21.255211
19.856757
18.667994
17.648121
16.76643
15.99938
15.328578
14.739356
14.219784
13.75998
13.351669
12.987843
12.662598
12.370969
12.108816
11.872707
11.659805
11.467767
11.294641
11.138781
10.998769
10.873348
10.761373
10.661773
10.573526
10.49565
10.427194
10.367246
10.314931
10.269426
10.229961
10.195828
10.166378
10.141027
10.119254
10.100594
10.084639
10.071032
10.05946
10.04965
10.041361
10.03435
10.028281
10.022323
10.01621
10.00999
10.003653
9.9972561
9.9910669
9.9862517
9.9826928
9.9801878
9.9785893
9.977773
9.97754
9.9780398
9.9789377
9.9802875
9.982003
9.9840507
9.9864035
9.9890432
9.9919442
9.9950631
9.9983447
37057.37
79698.515
39476.905
10038.777
1234.424
612.26683
435.40676
350.41758
288.70019
234.57419
191.41895
158.60621
134.12825
115.90853
101.95933
90.617426
81.00278
72.759883
65.680581
59.571511
54.260182
49.610368
45.516674
41.893874
38.676937
35.801411
33.222043
30.898985
28.800484
26.901458
25.180523
23.618619
22.199104
20.907329
19.731791
18.662825
17.69173
16.810794
16.012975
15.291862
14.641873
14.057469
13.533604
13.065724
12.649353
12.28027
11.954653
11.66848
11.418075
11.200094
11.011268
10.848484
10.70877
10.589604
10.488474
10.403157
10.333298
10.278763
10.239485
10.217979
10.210843
10.208961
10.207062
10.204372
10.201242
10.197717
10.193323
10.186751
10.177442
10.167442
10.152225
10.141036
10.112063
10.09819
10.068103
10.074012
10.016829
10.038992
9.9886493
10.010216
22240.626
69687.341
27803.204
4625.2877
940.74723
532.4988
399.36434
321.43228
262.96183
211.8846
173.95727
145.32201
124.18831
108.38216
96.018483
85.689536
76.845609
69.255241
62.723387
57.062541
52.118192
47.772853
43.934232
40.526539
37.488025
34.765699
32.318182
30.108207
28.107733
26.294202
24.647878
23.1511
21.788535
20.5467
19.415307
18.385409
17.448886
16.598572
15.82786
15.130755
14.502036
13.936398
13.429101
12.975829
12.57228
12.214435
11.898643
11.620986
11.377966
11.166366
10.983018
10.824915
10.689189
10.573425
10.475196
10.392273
10.32392
10.270704
10.232642
10.212363
10.205837
10.204133
10.202258
10.199624
10.196574
10.193125
10.189113
10.183216
10.174579
10.16498
10.150335
10.13925
10.111089
10.097518
10.067513
10.074028
10.016841
10.039282
9.9893757
10.010796
24183.778
49309.946
16428.965
2357.1712
832.36799
506.03087
387.81304
306.18378
250.52695
201.20166
166.50986
139.40468
119.67488
104.76921
92.986285
83.051379
74.561627
67.284525
61.016105
55.574803
50.816334
46.630611
42.929702
39.641
36.703779
34.070824
31.702003
29.561001
27.621799
25.862749
24.264808
22.810984
21.486623
20.278826
19.177994
18.175487
17.263506
16.435195
15.684181
15.004711
14.391781
13.840207
13.34545
12.903334
12.509665
12.160554
11.852462
11.581536
11.344402
11.13793
10.95902
10.804741
10.672319
10.559427
10.463564
10.382677
10.315589
10.263389
10.226259
10.206916
10.200843
10.199293
10.197461
10.194897
10.191929
10.188557
10.184729
10.179529
10.171597
10.162422
10.148383
10.13738
10.110126
10.096788
10.066864
10.073842
10.016876
10.039552
9.990122
10.011345
32014.926
27431.76
8467.1497
1493.0197
760.25531
482.33804
374.19442
291.29265
239.34563
190.67465
159.51475
133.57848
115.35664
101.29514
90.088078
80.543761
72.400154
65.41739
59.395133
54.159609
49.575387
45.538998
41.966766
38.789319
35.949153
33.398455
31.103246
29.027329
27.146242
25.439032
23.887317
22.474711
21.187168
20.012327
18.941232
17.965476
17.077566
16.270923
15.539379
14.877409
14.2802
13.742668
13.260478
12.829572
12.445853
12.105564
11.805266
11.541164
11.310014
11.108761
10.934377
10.784009
10.655036
10.544994
10.45157
10.372765
10.307138
10.255979
10.219812
10.201413
10.195812
10.194421
10.192635
10.190149
10.187268
10.183978
10.180195
10.175584
10.168389
10.159665
10.146264
10.135356
10.109019
10.095956
10.06615
10.073469
10.016927
10.039807
9.9908604
10.011926
36396.903
20075.22
5434.8154
1267.943
722.44909
461.24978
363.39123
278.9149
231.04772
182.54986
154.44799
128.95039
112.05481
98.519707
87.74237
78.489639
70.620486
63.867187
58.03751
52.964207
48.518747
44.602375
41.134394
38.047806
35.28706
32.806934
30.571542
28.550485
26.71883
25.056034
23.544219
22.167449
20.912162
19.766405
18.721759
17.769933
16.903699
16.116689
15.40289
14.756963
14.174245
13.649721
13.179235
12.758817
12.384449
12.052487
11.759576
11.501966
11.276532
11.080285
10.910259
10.763682
10.638015
10.530754
10.439707
10.362937
10.298861
10.248682
10.21344
10.195794
10.190776
10.189536
10.187803
10.1854
10.18261
10.179403
10.175703
10.171418
10.164985
10.156739
10.144002
10.133198
10.107783
10.094984
10.065364
10.072913
10.016995
10.040048
9.9915881
10.012542
38511.432
16938.412
3877.4077
1185.8408
697.61809
441.71548
355.498
268.73669
224.52388
175.83341
150.40573
124.9612
109.30715
96.101525
85.699779
76.689391
69.056799
62.497361
56.831663
51.897398
47.571564
43.759062
40.381624
37.374243
34.683152
32.264517
30.082555
28.110151
26.322453
24.69939
23.223445
21.879052
20.653057
19.533851
18.513484
17.583714
16.737564
15.968831
15.271626
14.640774
14.07173
13.559532
13.100187
12.689789
12.324388
12.000443
11.714665
11.463344
11.243471
11.05211
10.886364
10.74357
10.621068
10.516542
10.427845
10.35309
10.290681
10.241441
10.207105
10.190248
10.185747
10.184637
10.182963
10.180649
10.177953
10.174833
10.171211
10.167046
10.161372
10.153634
10.141585
10.130897
10.10638
10.093854
10.0645
10.072189
10.017078
10.040277
9.9923153
10.013224
39850.485
14163.956
3108.8574
1135.574
680.3175
427.67413
349.68118
260.40672
219.38907
170.39301
147.15547
121.56139
107.02898
94.001393
83.928148
75.11308
67.681961
61.285612
55.759158
50.943708
46.720793
42.998123
39.699364
36.761139
34.131118
31.766775
29.633661
27.703288
25.954593
24.367113
22.923463
21.608362
20.408995
19.314044
18.315973
17.406529
16.578985
15.827255
15.145557
14.528855
13.972701
13.472165
13.02341
12.622568
12.265752
11.949511
11.67061
11.425372
11.210902
11.024317
10.862828
10.723608
10.604226
10.502395
10.416016
10.343253
10.282591
10.234272
10.200823
10.184793
10.180723