/*--------------------------------*- C++ -*----------------------------------*\
| =========                 |                                                 |
| \\      /  F ield         | OpenFOAM: The Open Source CFD Toolbox           |
|  \\    /   O peration     | Version:  2512                                  |
|   \\  /    A nd           | Website:  www.openfoam.com                      |
|    \\/     M anipulation  |                                                 |
\*---------------------------------------------------------------------------*/
FoamFile
{
    version     2.0;
    format      ascii;
    arch        "LSB;label=32;scalar=64";
    class       volScalarField;
    location    "0.149";
    object      p;
}
// * * * * * * * * * * * * * * * * * * * * * * * * * * * * * * * * * * * * * //

dimensions      [1 -1 -2 0 0 0 0];

internalField   nonuniform List<scalar> 
16000
(
89591.732
89717.528
89729.422
89863.474
89889.723
90016.642
90067.183
90183.552
90257.342
90368.156
90460.128
90570.918
90676.924
90792.064
90909.114
91031.625
91158.218
91289.5
91425.351
91565.861
91711.044
91860.907
92015.433
92174.584
92338.294
92506.471
92678.989
92855.695
93036.401
93220.885
93408.889
93600.122
93794.258
93990.936
94189.763
94390.315
94592.144
94794.775
94997.715
95200.458
95402.488
95603.286
95802.338
95999.138
96193.196
96384.044
96571.238
96754.368
96933.057
97106.968
97275.802
97439.305
97597.263
97749.504
97895.899
98036.356
98170.823
98299.282
98421.748
98538.267
98648.912
98753.779
98852.984
98946.666
99034.976
99118.083
99196.165
99269.414
99338.03
99402.223
99462.206
99518.215
99570.512
99619.293
99664.661
99707.194
99752.539
99761.998
99872.581
99769.596
89223.949
89366.706
89376.094
89522.285
89550.194
89688.08
89741.055
89868.745
89946.435
90067.41
90165.844
90285.639
90400.03
90524.108
90650.496
90782.575
90919.149
91060.706
91207.168
91358.59
91514.969
91676.286
91842.496
92013.523
92189.264
92369.583
92554.31
92743.24
92936.131
93132.703
93332.641
93535.588
93741.155
93948.914
94158.407
94369.148
94580.624
94792.306
95003.647
95214.098
95423.105
95630.123
95834.62
96036.084
96234.029
96428.002
96617.585
96802.402
96982.12
97156.453
97325.158
97488.04
97644.949
97795.779
97940.462
98078.97
98211.309
98337.518
98457.66
98571.829
98680.136
98782.711
98879.698
98971.258
99057.56
99138.784
99215.117
99286.75
99353.882
99416.717
99475.463
99530.351
99581.611
99629.382
99673.975
99716.773
99755.052
99783.583
99860.689
99788.04
88888.917
89047.115
89056.333
89215.719
89243.775
89395.384
89450.132
89590.141
89672.773
89804.293
89910.554
90039.993
90164.018
90298.033
90434.933
90577.747
90725.487
90878.512
91036.759
91200.242
91368.932
91542.774
91721.684
91905.549
92094.219
92287.508
92485.193
92687.01
92892.653
93101.775
93313.987
93528.861
93745.928
93964.688
94184.606
94405.125
94625.667
94845.641
95064.451
95281.506
95496.222
95708.037
95916.414
96120.848
96320.876
96516.075
96706.074
96890.551
97069.234
97241.906
97408.399
97568.594
97722.418
97869.841
98010.872
98145.552
98273.954
98396.177
98512.34
98622.582
98727.058
98825.932
98919.374
99007.567
99090.696
99168.95
99242.52
99311.599
99376.381
99437.062
99493.843
99546.938
99596.539
99642.804
99686.246
99727.456
99763.19
99798.913
99855.161
99805.243
88590.602
88759.639
88769.543
88944.354
88971.892
89139.775
89196.81
89351.129
89439.614
89583.21
89698.751
89839.159
89974.396
90119.751
90268.61
90423.555
90583.804
90749.598
90920.881
91097.635
91279.801
91467.292
91659.985
91857.72
92060.294
92267.462
92478.932
92694.365
92913.375
93135.53
93360.353
93587.324
93815.884
94045.445
94275.388
94505.077
94733.866
94961.104
95186.152
95408.383
95627.198
95842.033
96052.365
96257.718
96457.672
96651.861
96839.981
97021.788
97197.094
97365.771
97527.743
97682.984
97831.513
97973.387
98108.698
98237.566
98360.134
98476.565
98587.035
98691.729
98790.844
98884.576
98973.123
99056.683
99135.455
99209.635
99279.415
99344.985
99406.532
99464.24
99518.296
99568.888
99616.18
99660.377
99701.959
99740.853
99775.263
99812.409
99855.541
99822.158
88332.162
88516.037
88522.803
88716.264
88742.717
88928.844
88988.039
89158.411
89253.951
89410.979
89537.517
89690.009
89837.881
89995.727
90157.704
90325.906
90499.77
90679.451
90864.899
91056.066
91252.859
91455.147
91662.75
91875.443
92092.949
92314.936
92541.023
92770.772
93003.693
93239.246
93476.846
93715.864
93955.639
94195.482
94434.685
94672.534
94908.315
95141.332
95370.909
95596.408
95817.234
96032.845
96242.759
96446.56
96643.898
96834.494
97018.139
97194.69
97364.068
97526.254
97681.28
97829.228
97970.216
98104.399
98231.955
98353.084
98468.002
98576.932
98680.103
98777.747
98870.094
98957.37
99039.793
99117.576
99190.925
99260.038
99325.104
99386.305
99443.818
99497.813
99548.457
99595.906
99640.314
99681.903
99720.986
99757.219
99790.181
99826.208
99860.051
99839.378
88116.434
88317.814
88322.748
88537.076
88562.582
88768.953
88830.547
89018.718
89122.517
89293.649
89432.334
89597.382
89758.808
89930.013
90106.125
90288.749
90477.496
90672.436
90873.488
91080.549
91293.459
91512.009
91735.935
91964.914
92198.562
92436.436
92678.033
92922.789
93170.086
93419.255
93669.581
93920.315
94170.68
94419.884
94667.133
94911.639
95152.641
95389.41
95621.264
95847.579
96067.798
96281.437
96488.091
96687.437
96879.234
97063.321
97239.612
97408.094
97568.818
97721.89
97867.467
98005.743
98136.946
98261.325
98379.149
98490.692
98596.237
98696.063
98790.446
98879.655
98963.949
99043.574
99118.764
99189.737
99256.702
99319.853
99379.371
99435.428
99488.183
99537.791
99584.39
99628.11
99669.097
99707.548
99743.572
99776.852
99807.912
99841.176
99868.01
99857.617
87943.563
88165.762
88168.013
88406.92
88431.529
88662.115
88726.739
88934.138
89046.096
89230.787
89382.735
89561.179
89737.718
89924.001
90116.123
90315.182
90520.87
90733.148
90951.864
91176.828
91407.784
91644.416
91886.344
92133.117
92384.215
92639.053
92896.975
93157.266
93419.154
93681.82
93944.408
94206.038
94465.818
94722.86
94976.295
95225.286
95469.049
95706.858
95938.064
96162.099
96378.489
96586.854
96786.911
96978.472
97161.443
97335.814
97501.655
97659.104
97808.358
97949.663
98083.302
98209.59
98328.856
98441.445
98547.703
98647.976
98742.599
98831.899
98916.188
98995.759
99070.893
99141.846
99208.857
99272.145
99331.912
99388.344
99441.609
99491.861
99539.242
99583.883
99625.891
99665.375
99702.473
99737.306
99769.808
99799.897
99828.616
99857.968
99878.987
99877.872
87807.992
88054.652
88052.726
88321.19
88342.616
88599.55
88667.268
88893.838
89017.77
89218.836
89387.935
89582.758
89777.54
89981.885
90192.859
90411.134
90636.442
90868.643
91107.498
91352.707
91603.891
91860.601
92122.302
92388.382
92658.153
92930.846
93205.627
93481.6
93757.817
94033.297
94307.036
94578.025
94845.271
95107.809
95364.728
95615.182
95858.408
96093.736
96320.604
96538.56
96747.269
96946.509
97136.17
97316.246
97486.827
97648.086
97800.268
97943.68
98078.672
98205.633
98324.972
98437.111
98542.479
98641.497
98734.579
98822.123
98904.507
98982.088
99055.2
99124.151
99189.226
99250.685
99308.761
99363.664
99415.586
99464.695
99511.141
99555.057
99596.565
99635.764
99672.734
99707.564
99740.377
99771.175
99799.787
99826.503
99852.437
99877.001
99893.125
99900.669
87708.903
87983.982
87977.754
88282.374
88298.232
88584.007
88657.725
88906.531
89047.44
89267.142
89456.878
89670.871
89886.866
90112.308
90345.09
90585.535
90833.346
91088.256
91349.898
91617.82
91891.479
92170.241
92453.377
92740.065
93029.401
93320.402
93612.018
93903.149
94192.661
94479.405
94762.237
95040.043
95311.758
95576.388
95833.033
96080.898
96319.311
96547.734
96765.764
96973.137
97169.723
97355.518
97530.634
97695.288
97849.783
97994.496
98129.858
98256.345
98374.46
98484.721
98587.648
98683.758
98773.555
98857.522
98936.117
99009.773
99078.891
99143.842
99204.965
99262.567
99316.93
99368.3
99416.898
99462.918
99506.53
99547.882
99587.101
99624.297
99659.563
99692.969
99724.564
99754.43
99782.644
99809.074
99833.544
99856.766
99879.436
99898.511
99910.689
99926.495
87649.713
87957.926
87948.293
88290.105
88305.307
88623.763
88709.051
88983.067
89143.837
89384.239
89598.254
89834.613
90075.098
90325.05
90582.964
90848.857
91122.326
91402.939
91690.141
91983.278
92281.581
92584.171
92890.066
93198.183
93507.356
93816.348
94123.872
94428.611
94729.244
95024.474
95313.052
95593.805
95865.662
96127.675
96379.041
96619.11
96847.401
97063.594
97267.538
97459.231
97638.817
97806.561
97962.84
98108.114
98242.915
98367.822
98483.45
98590.429
98689.391
98780.962
98865.751
98944.339
99017.281
99085.095
99148.26
99207.222
99262.382
99314.109
99362.729
99408.537
99451.793
99492.725
99531.53
99568.376
99603.41
99636.751
99668.501
99698.744
99727.543
99754.931
99780.94
99805.639
99829.034
99850.863
99871.066
99890.738
99909.687
99922.83
99932.004
99955.556
87637.439
87985
87971.374
88353.85
88372.951
88727.589
88827.496
89128.812
89315.215
89579.152
89821.706
90084.397
90353.16
90631.501
90918.28
91213.226
91515.758
91825.206
92140.761
92461.482
92786.298
93114.016
93443.332
93772.849
94101.096
94426.559
94747.703
95063.006
95370.996
95670.279
95959.575
96237.748
96503.829
96757.039
96996.794
97222.715
97434.623
97632.526
97816.604
97987.193
98144.755
98289.86
98423.16
98545.362
98657.214
98759.48
98852.924
98938.3
99016.34
99087.739
99153.159
99213.216
99268.481
99319.479
99366.686
99410.535
99451.411
99489.656
99525.575
99559.433
99591.46
99621.854
99650.78
99678.378
99704.761
99730.022
99754.232
99777.446
99799.693
99820.978
99841.317
99860.76
99879.216
99896.328
99912.276
99928.394
99943.216
99950.315
99957.486
99988.06
87678.876
88073.212
88055.766
88486.36
88510.612
88904.613
89023.909
89354.43
89572.196
89863.036
90138.605
90432.244
90733.635
91044.766
91364.607
91692.559
92027.755
92369.191
92715.696
93065.946
93418.478
93771.705
94123.939
94473.424
94818.364
95156.965
95487.476
95808.231
96117.69
96414.483
96697.439
96965.616
97218.311
97455.075
97675.702
97880.215
98068.854
98242.04
98400.353
98544.499
98675.278
98793.559
98900.249
98996.274
99082.556
99159.999
99229.475
99291.814
99347.797
99398.152
99443.55
99484.607
99521.879
99555.868
99587.022
99615.74
99642.371
99667.22
99690.549
99712.587
99733.526
99753.524
99772.711
99791.192
99809.046
99826.333
99843.096
99859.358
99875.114
99890.345
99905.06
99919.272
99932.771
99945.183
99957.02
99969.608
99979.95
99981.193
99987.482
100024.32
87774.76
88224.565
88203.785
88689.057
88721.87
89159.67
89306.263
89668.766
89925.306
90248.041
90561.978
90892.189
91231.395
91580.366
91937.936
92303.082
92674.512
93050.754
93430.156
93810.903
94191.047
94568.537
94941.257
95307.075
95663.892
96009.7
96342.636
96661.034
96963.474
97248.814
97516.212
97765.136
97995.358
98206.937
98400.192
98575.666
98734.091
98876.35
99003.432
99116.405
99216.374
99304.459
99381.772
99449.392
99508.355
99559.645
99604.178
99642.808
99676.317
99705.416
99730.751
99752.897
99772.369
99789.621
99805.051
99819.004
99831.78
99843.632
99854.775
99865.39
99875.623
99885.592
99895.386
99905.072
99914.694
99924.281
99933.845
99943.374
99952.836
99962.194
99971.453
99980.561
99989.196
99997.07
100005.06
100014.15
100019.72
100015.57
100022.21
100064.43
87931.525
88447.153
88424.005
88971.585
89019.028
89504.788
89687.892
90085.913
90389.096
90750.111
91108.549
91481.852
91864.828
92257.173
92657.313
93063.637
93474.258
93887.094
94299.878
94710.199
95115.546
95513.361
95901.107
96276.343
96636.793
96980.42
97305.492
97610.62
97894.799
98157.408
98398.21
98617.321
98815.181
98992.501
99150.218
99289.442
99411.409
99517.431
99608.861
99687.058
99753.354
99809.04
99855.342
99893.416
99924.336
99949.091
99968.585
99983.634
99994.976
100003.26
100009.08
100012.94
100015.28
100016.49
100016.91
100016.8
100016.42
100015.96
100015.57
100015.39
100015.51
100016.01
100016.94
100018.32
100020.16
100022.47
100025.21
100028.36
100031.85
100035.64
100039.71
100043.94
100047.92
100051.56
100056.04
100061.66
100062.32
100053.67
100061.89
100107.93
88156.092
88750.606
88727.573
89345.773
89415.243
89952.936
90183.788
90622.473
90981.316
91389.044
91799.433
92223.309
92656.555
93097.814
93544.841
93995.256
94446.403
94895.433
95339.336
95775.018
96199.381
96609.424
97002.342
97375.623
97727.139
98055.202
98358.61
98636.655
98889.11
99116.194
99318.521
99497.037
99652.955
99787.688
99902.783
99999.868
100080.6
100146.62
100199.54
100240.89
100272.12
100294.58
100309.51
100318.07
100321.28
100320.07
100315.27
100307.62
100297.77
100286.29
100273.66
100260.3
100246.59
100232.81
100219.24
100206.08
100193.49
100181.62
100170.56
100160.4
100151.17
100142.92
100135.64
100129.34
100123.98
100119.54
100115.97
100113.19
100111.13
100109.75
100109.01
100108.67
100108.3
100108.14
100109.5
100111.64
100107.45
100095.64
100106.57
100154.19
88455.492
89144.376
89123.897
89822.394
89925.333
90520.785
90813.935
91301.668
91726.643
92191.321
92661.97
93144.034
93633.603
94128.198
94624.65
95119.578
95609.346
96090.167
96558.214
97009.751
97441.28
97849.675
98232.299
98587.097
98912.636
99208.128
99473.394
99708.82
99915.281
100094.05
100246.72
100375.09
100481.12
100566.84
100634.27
100685.42
100722.21
100746.45
100759.87
100764.02
100760.35
100750.16
100734.64
100714.81
100691.61
100665.86
100638.26
100609.44
100579.93
100550.18
100520.59
100491.46
100463.08
100435.65
100409.35
100384.33
100360.67
100338.46
100317.74
100298.54
100280.85
100264.67
100249.97
100236.7
100224.82
100214.26
100204.95
100196.78
100189.69
100183.63
100178.5
100173.97
100169.69
100166.23
100164.85
100163.5
100154.67
100141.26
100155.9
100202.39
88837.905
89639.515
89626.279
90420.089
90572.915
91235.905
91608.435
92156.028
92657.913
93190.148
93729.032
94275.802
94825.962
95375.641
95920.359
96455.431
96976.053
97477.51
97955.377
98405.714
98825.231
99211.408
99562.554
99877.817
100157.14
100401.16
100611.15
100788.84
100936.32
101055.94
101150.16
101221.52
101272.53
101305.59
101323.02
101326.98
101319.45
101302.27
101277.08
101245.36
101208.43
101167.44
101123.44
101077.3
101029.79
100981.59
100933.25
100885.27
100838.03
100791.88
100747.09
100703.87
100662.41
100622.83
100585.23
100549.67
100516.2
100484.82
100455.53
100428.31
100403.13
100379.92
100358.63
100339.18
100321.5
100305.5
100291.09
100278.14
100266.59
100256.37
100247.33
100239.06
100231.39
100225.19
100221.4
100216.59
100203.53
100189.89
100208.96
100251.96
89320.577
90261.016
90265.845
91174.388
91395.279
92136.315
92606.014
93225.139
93814.024
94423.859
95037.699
95653.17
96264.252
96865.153
97449.716
98011.887
98545.974
99046.942
99510.642
99933.974
100314.95
100652.71
100947.42
101200.13
101412.68
101587.43
101727.19
101834.99
101913.99
101967.35
101998.14
102009.31
102003.62
101983.6
101951.58
101909.66
101859.7
101803.37
101742.13
101677.27
101609.88
101540.94
101471.27
101401.56
101332.4
101264.3
101197.66
101132.81
101070.03
101009.53
100951.47
100895.98
100843.13
100792.98
100745.56
100700.86
100658.85
100619.51
100582.79
100548.61
100516.91
100487.59
100460.57
100435.75
100413.03
100392.31
100373.45
100356.36
100340.95
100327.13
100314.67
100303.19
100292.7
100284.29
100278.32
100270.25
100253.79
100240.89
100264.29
100303.31
89933.757
91050.977
91085.582
92127.752
92436.15
93264.097
93850.374
94555.044
95240.774
95936.655
96628.518
97310.263
97973.56
98610.539
99213.735
99776.61
100293.87
100761.68
101177.74
101541.26
101852.8
102114.07
102327.71
102497.02
102625.75
102717.85
102777.36
102808.25
102814.3
102799.08
102765.86
102717.62
102657.07
102586.57
102508.24
102423.93
102335.24
102243.55
102150.06
102055.78
101961.56
101868.14
101776.11
101685.97
101598.12
101512.89
101430.54
101351.26
101275.2
101202.46
101133.11
101067.16
101004.63
100945.5
100889.72
100837.24
100787.99
100741.88
100698.82
100658.72
100621.47
100586.95
100555.06
100525.66
100498.66
100473.91
100451.29
100430.68
100412.01
100395.15
100379.79
100365.63
100352.93
100342.78
100334.81
100323.83
100305.16
100293.9
100320.93
100356.09
90711.439
92041.361
92120.521
93317.141
93746.297
94673.415
95398.054
96204.532
96993.781
97776.607
98538.159
99268.748
99958.212
100597.94
101181.09
101702.87
102160.68
102553.95
102883.92
103153.31
103365.95
103526.44
103639.82
103711.29
103746.03
103749
103724.87
103677.92
103612.05
103530.74
103437.06
103333.7
103223.02
103107.03
102987.47
102865.81
102743.3
102621
102499.77
102380.34
102263.32
102149.17
102038.29
101930.97
101827.46
101727.9
101632.44
101541.12
101454
101371.07
101292.3
101217.66
101147.07
101080.46
101017.73
100958.77
100903.47
100851.72
100803.39
100758.34
100716.46
100677.6
100641.63
100608.43
100577.84
100549.75
100524
100500.5
100479.14
100459.76
100442.04
100425.76
100411.42
100399.93
100390.13
100376.71
100357.2
100348.56
100378.25
100408.77
91685.318
93280.781
93440.97
94809.127
95404.65
96446.377
97325.725
98242.87
99127.755
99977.842
100776.89
101513.78
102179.4
102767.77
103276.01
103704.04
104054.25
104330.88
104539.56
104686.7
104779.14
104823.73
104827.12
104795.52
104734.67
104649.71
104545.23
104425.25
104293.26
104152.27
104004.83
103853.13
103699.01
103544.01
103389.4
103236.25
103085.41
102937.61
102793.4
102653.23
102517.44
102386.3
102260
102138.67
102022.37
101911.15
101805
101703.9
101607.77
101516.54
101430.12
101348.4
101271.24
101198.53
101130.11
101065.86
101005.62
100949.25
100896.59
100847.5
100801.82
100759.41
100720.11
100683.78
100650.28
100619.46
100591.18
100565.35
100541.84
100520.44
100500.85
100483.01
100467.54
100455.03
100443.62
100428.34
100409.14
100403.95
100434.88
100459.37
92937.256
94867.867
95153.673
96714.071
97522.843
98685.751
99712.457
100722.04
101662.55
102525.15
103296.27
103968.58
104538.94
105008.31
105380.9
105663.35
105863.91
105991.64
106055.84
106065.59
106029.4
105955.1
105849.67
105719.28
105569.27
105404.24
105228.09
105044.13
104855.1
104663.31
104470.66
104278.71
104088.74
103901.77
103718.64
103539.99
103366.33
103198.05
103035.45
102878.71
102727.98
102583.32
102444.76
102312.29
102185.85
102065.36
101950.72
101841.83
101738.53
101640.7
101548.17
101460.78
101378.37
101300.76
101227.79
101159.29
101095.07
101034.98
100978.84
100926.49
100877.75
100832.48
100790.5
100751.67
100715.84
100682.84
100652.57
100624.91
100599.71
100576.73
100555.74
100536.84
100520.64
100507.33
100494.58
100478.21
100460.26
100458.34
100488.54
100506.52
94596.642
96940.876
97406.659
99156.245
100211.65
101477.29
102595.22
103627.79
104537.55
105318.74
105967.83
106487.67
106885.49
107171.68
107358.43
107458.63
107485.06
107449.76
107363.73
107236.73
107077.29
106892.69
106689.12
106471.74
106244.86
106012.01
105776.09
105539.45
105304.02
105071.3
104842.52
104618.64
104400.38
104188.33
103982.89
103784.38
103592.98
103408.83
103231.97
103062.42
102900.12
102745
102596.95
102455.85
102321.53
102193.85
102072.61
101957.64
101848.75
101745.74
101648.41
101556.57
101470.02
101388.55
101311.98
101240.1
101172.73
101109.69
101050.78
100995.83
100944.67
100897.12
100853.02
100812.21
100774.54
100739.85
100708.04
100678.96
100652.46
100628.3
100606.33
100586.75
100570.1
100556.13
100542.35
100525.62
100509.56
100510.14
100537.89
100550.64
96848.711
99656.621
100362.58
102247.77
103508.83
104814.3
105904.61
106832.1
107584.56
108168.58
108595.94
108883.01
109048.08
109109.76
109085.77
108992.23
108843.34
108651.31
108426.42
108177.22
107910.74
107632.68
107347.67
107059.39
106770.79
106484.19
106201.42
105923.89
105652.69
105388.64
105132.35
104884.25
104644.62
104413.66
104191.45
103978.01
103773.3
103577.23
103389.67
103210.48
103039.48
102876.48
102721.26
102573.62
102433.33
102300.16
102173.88
102054.25
101941.06
101834.05
101733.01
101637.72
101547.93
101463.45
101384.05
101309.52
101239.67
101174.3
101113.2
101056.21
101003.12
100953.78
100908.02
100865.66
100826.55
100790.56
100757.56
100727.42
100699.95
100674.93
100652.31
100632.34
100615.4
100600.86
100586.34
100569.82
100555.98
100558.62
100583.25
100590.37
99937.821
103122.27
104127.91
106071.6
107365.52
108516.33
109415.16
110087.53
110552.15
110836.35
110968.42
110976.01
110884.16
110714.68
110485.99
110213.25
109908.79
109582.45
109242.03
108893.67
108542.13
108191.11
107843.45
107501.31
107166.31
106839.66
106522.22
106214.6
105917.22
105630.32
105354.01
105088.33
104833.21
104588.55
104354.18
104129.91
103915.52
103710.78
103515.42
103329.17
103151.78
102982.96
102822.44
102669.94
102525.18
102387.89
102257.81
102134.65
102018.17
101908.11
101804.21
101706.23
101613.94
101527.1
101445.48
101368.88
101297.06
101229.84
101167.02
101108.4
101053.8
101003.04
100955.95
100912.37
100872.15
100835.15
100801.24
100770.28
100742.08
100716.47
100693.45
100673.28
100656.11
100641.11
100626.21
100610.47
100598.89
100602.57
100623.16
100626.24
104117.86
107510.01
108710.35
110382.48
111489.07
112300.15
112816.34
113092.99
113175.06
113105.64
112921.01
112651.12
112319.89
111946.07
111544.15
111125.16
110697.48
110267.37
109839.51
109417.35
109003.39
108599.44
108206.75
107826.19
107458.29
107103.36
106761.53
106432.79
106117.05
105814.13
105523.79
105245.76
104979.74
104725.4
104482.42
104250.45
104029.14
103818.15
103617.14
103425.76
103243.67
103070.56
102906.08
102749.92
102601.78
102461.35
102328.33
102202.43
102083.38
101970.9
101864.73
101764.61
101670.3
101581.55
101498.13
101419.81
101346.39
101277.65
101213.39
101153.42
101097.56
101045.62
100997.44
100952.85
100911.71
100873.88
100839.23
100807.6
100778.84
100752.8
100729.53
100709.21
100691.8
100676.45
100661.59
100647.09
100637.51
100640.95
100656.62
100657.08
109313.43
112654.75
113757.09
114864.22
115458.27
115727.18
115735.76
115557.31
115245.55
114842.48
114379.21
113878.63
113357.3
112827.12
112296.54
111771.53
111256.23
110753.47
110265.12
109792.38
109335.95
108896.15
108473.08
108066.63
107676.57
107302.57
106944.25
106601.19
106272.93
105959.02
105658.99
105372.36
105098.67
104837.46
104588.3
104350.73
104124.33
103908.69
103703.41
103508.09
103322.37
103145.87
102978.23
102819.13
102668.21
102525.17
102389.69
102261.46
102140.21
102025.64
101917.48
101815.47
101719.37
101628.91
101543.86
101464.01
101389.13
101319.01
101253.44
101192.24
101135.23
101082.21
101033.03
100987.52
100945.54
100906.95
100871.62
100839.4
100810.13
100783.74
100760.25
100739.74
100722.05
100706.48
100692.02
100679.01
100670.94
100672.85
100682.79
100682.07
115469.5
117959.95
118557.68
118826.34
118722.22
118386.18
117897.13
117315.27
116680.75
116020.75
115353.25
114690.07
114038.85
113404.42
112789.73
112196.46
111625.41
111076.85
110550.64
110046.4
109563.6
109101.59
108659.69
108237.17
107833.31
107447.4
107078.73
106726.6
106390.37
106069.39
105763.04
105470.75
105191.96
104926.11
104672.7
104431.24
104201.24
103982.27
103773.88
103575.65
103387.19
103208.11
103038.04
102876.62
102723.51
102578.37
102440.89
102310.75
102187.67
102071.36
101961.53
101857.93
101760.29
101668.37
101581.93
101500.74
101424.59
101353.26
101286.56
101224.28
101166.25
101112.29
101062.22
101015.9
100973.18
100933.92
100897.98
100865.23
100835.53
100808.82
100785.1
100764.35
100746.38
100730.69
100716.79
100705.11
100697.81
100697.53
100702.64
100702.05
122040.65
122474.31
122250.83
121697.61
120963.04
120137.66
119277.01
118412.66
117562.88
116737.76
115942.61
115179.89
114450.37
113753.82
113089.42
112456.04
111852.4
111277.15
110728.92
110206.39
109708.29
109233.4
108780.57
108348.73
107936.86
107544.01
107169.29
106811.86
106470.93
106145.77
105835.69
105540.02
105258.15
104989.49
104733.49
104489.63
104257.4
104036.32
103825.96
103625.87
103435.63
103254.86
103083.17
102920.2
102765.6
102619.02
102480.16
102348.69
102224.32
102106.76
101995.72
101890.95
101792.19
101699.18
101611.69
101529.48
101452.36
101380.09
101312.49
101249.36
101190.5
101135.76
101084.96
101037.94
100994.57
100954.71
100918.21
100884.96
100854.83
100827.78
100803.74
100782.65
100764.35
100748.54
100735.05
100724.21
100717.13
100714.85
100716.3
100716.28
125897.86
125270.64
124351.89
123298.15
122212.82
121139.89
120101.92
119108.13
118161.9
117263.42
116411.35
115603.59
114837.77
114111.42
113422.13
112767.62
112145.75
111554.52
110992.1
110456.79
109947.06
109461.47
108998.7
108557.56
108136.91
107735.74
107353.09
106988.06
106639.84
106307.66
105990.79
105688.56
105400.34
105125.52
104863.55
104613.89
104376.03
104149.5
103933.83
103728.6
103533.37
103347.76
103171.39
103003.88
102844.89
102694.07
102551.11
102415.69
102287.51
102166.27
102051.71
101943.55
101841.53
101745.41
101654.94
101569.89
101490.05
101415.2
101345.15
101279.69
101218.64
101161.83
101109.09
101060.26
101015.19
100973.76
100935.81
100901.24
100869.94
100841.84
100816.87
100794.93
100775.88
100759.56
100745.91
100735.16
100727.8
100724.2
100723.68
100724.18
104022.36
103986.48
104012.76
104039.49
104054.68
104046.35
104013.92
103972.21
103924.53
103866.02
103794.55
103712.97
103624.56
103533.41
103439.88
103343.98
103245.93
103146.06
103044.65
102941.95
102838.2
102733.62
102628.44
102522.85
102417.04
102311.2
102205.5
102100.13
101995.26
101891.03
101787.62
101685.18
101583.87
101483.83
101385.21
101288.16
101192.83
101099.36
101007.89
100918.58
100831.55
100746.96
100664.94
100585.63
100509.18
100435.72
100365.39
100298.31
100234.61
100174.39
100117.77
100064.83
100015.67
99970.333
99928.888
99891.363
99857.769
99828.095
99802.307
99780.339
99762.101
99747.476
99736.333
99728.506
99723.847
99722.063
99723.165
99726.321
99732.684
99738.908
99751.321
99756.426
99779.177
99774.334
99818.821
99785.53
99869.347
99791.477
99924.111
99799.161
103038.33
103032.13
103055.08
103075.83
103078.55
103077.39
103070.19
103056.52
103033.32
103004.57
102969.32
102929.09
102883.31
102832.86
102777.76
102718.54
102655.38
102588.56
102518.36
102445.06
102368.94
102290.28
102209.37
102126.49
102041.9
101955.9
101868.73
101780.67
101691.97
101602.87
101513.61
101424.42
101335.53
101247.16
101159.51
101072.8
100987.24
100903.01
100820.32
100739.35
100660.29
100583.32
100508.62
100436.36
100366.7
100299.82
100235.88
100175.01
100117.36
100063.05
100012.21
99964.929
99921.297
99881.386
99845.249
99812.917
99784.396
99759.671
99738.697
99721.402
99707.685
99697.422
99690.47
99686.659
99685.825
99687.682
99692.195
99698.626
99707.921
99717.144
99731.828
99739.954
99763.998
99762.352
99806.901
99777.642
99861.205
99784.928
99922.482
99790.162
102401.53
102396.3
102395.75
102397.74
102393.13
102388.09
102378.55
102368.79
102354.08
102336.98
102314.75
102289.61
102259.79
102226.57
102189.26
102148.39
102103.9
102056
102004.84
101950.58
101893.43
101833.56
101771.19
101706.52
101639.75
101571.12
101500.82
101429.1
101356.17
101282.25
101207.59
101132.4
101056.92
100981.38
100906.01
100831.03
100756.67
100683.16
100610.72
100539.56
100469.9
100401.94
100335.9
100271.97
100210.35
100151.22
100094.78
100041.17
99990.567
99943.103
99898.908
99858.093
99820.754
99786.967
99756.787
99730.246
99707.348
99688.073
99672.371
99660.161
99651.336
99645.766
99643.3
99643.763
99646.979
99652.67
99660.764
99670.597
99682.964
99695.231
99712.362
99723.419
99749.028
99750.274
99795.342
99769.565
99853.268
99778.505
99920.335
99781.854
101949.5
101937.21
101921.56
101905.92
101890.99
101877.93
101858.06
101839.9
101817.77
101796.41
101771.32
101746.1
101717.81
101688.43
101656.59
101622.95
101587.14
101549.27
101509.28
101467.16
101422.96
101376.69
101328.4
101278.17
101226.07
101172.21
101116.71
101059.71
101001.34
100941.78
100881.21
100819.8
100757.76
100695.28
100632.59
100569.9
100507.43
100445.41
100384.05
100323.58
100264.23
100206.22
100149.77
100095.11
100042.44
99991.966
99943.889
99898.388
99855.633
99815.778
99778.96
99745.302
99714.903
99687.846
99664.188
99643.961
99627.168
99613.785
99603.756
99596.995
99593.388
99592.8
99595.077
99600.037
99607.496
99617.183
99629.001
99642.344
99657.887
99673.247
99692.943
99706.871
99734.239
99738.177
99784.088
99761.366
99845.553
99772.237
99917.708
99774.331
101408.77
101392.43
101374.09
101354.81
101334.75
101318.6
101297.88
101280.96
101259.6
101241.21
101219.13
101198.72
101175.58
101152.74
101128.04
101102.53
101075.56
101047.31
101017.58
100986.35
100953.56
100919.19
100883.21
100845.62
100806.46
100765.75
100723.56
100679.95
100635.01
100588.87
100541.62
100493.43
100444.44
100394.82
100344.75
100294.43
100244.04
100193.8
100143.92
100094.61
100046.11
99998.64
99952.42
99907.677
99864.631
99823.495
99784.471
99747.75
99713.508
99681.907
99653.091
99627.187
99604.301
99584.515
99567.887
99554.45
99544.203
99537.118
99533.132
99532.155
99534.068
99538.732
99545.987
99555.651
99567.53
99581.363
99597.03
99613.981
99632.789
99651.292
99673.627
99690.392
99719.648
99726.204
99773.098
99753.163
99838.02
99766.153
99914.661
99767.597
100774.78
100764.86
100755.34
100745.48
100732.75
100725.23
100711.37
100702.81
100688.37
100678.14
100663.19
100650.99
100635.65
100621.38
100605.2
100588.64
100570.81
100552.05
100532.12
100511
100488.66
100465.04
100440.13
100413.91
100386.37
100357.52
100327.38
100295.99
100263.39
100229.66
100194.87
100159.13
100122.56
100085.28
100047.45
100009.21
99970.756
99932.256
99893.909
99855.918
99818.495
99781.855
99746.219
99711.805
99678.83
99647.506
99618.032
99590.6
99565.387
99542.555
99522.249
99504.596
99489.702
99477.648
99468.49
99462.255
99458.94
99458.508
99460.89
99465.992
99473.689
99483.84
99496.28
99510.824
99527.275
99545.377
99564.998
99585.637
99607.776
99629.466
99654.479
99674.052
99705.278
99714.448
99762.366
99745.05
99830.668
99760.29
99911.419
99761.432
100150.45
100148.35
100146.33
100145.97
100140.46
100141.55
100134.74
100134.83
100127.82
100126.52
100119.26
100115.76
100108.45
100102.75
100094.8
100086.75
100077.43
100067.44
100056.5
100044.62
100031.77
100017.91
100003.01
99987.042
99969.998
99951.864
99932.644
99912.352
99891.017
99868.681
99845.401
99821.251
99796.317
99770.701
99744.52
99717.906
99691.005
99663.975
99636.988
99610.229
99583.888
99558.165
99533.266
99509.395
99486.756
99465.551
99445.969
99428.194
99412.396
99398.731
99387.34
99378.342
99371.838
99367.903
99366.587
99367.908
99371.855
99378.383
99387.416
99398.851