/*--------------------------------*- C++ -*----------------------------------*\
| =========                 |                                                 |
| \\      /  F ield         | OpenFOAM: The Open Source CFD Toolbox           |
|  \\    /   O peration     | Version:  2512                                  |
|   \\  /    A nd           | Website:  www.openfoam.com                      |
|    \\/     M anipulation  |                                                 |
\*---------------------------------------------------------------------------*/
FoamFile
{
    version     2.0;
    format      ascii;
    arch        "LSB;label=32;scalar=64";
    class       surfaceScalarField;
    location    "0.149";
    object      phi;
}
// * * * * * * * * * * * * * * * * * * * * * * * * * * * * * * * * * * * * * //

dimensions      [1 0 -1 0 0 0 0];

oriented        oriented;

internalField   nonuniform List<scalar> 
31760
(
-0.00064043807
-0.051003832
0.051644684
-0.0016061764
-0.064416794
0.065382977
-0.0025883475
-0.062880501
0.063861251
-0.0036073913
-0.068673834
0.069693463
-0.0046804232
-0.07023653
0.071310103
-0.005782263
-0.074579803
0.075682124
-0.0069540961
-0.07745464
0.07862697
-0.0081648756
-0.081497652
0.082708862
-0.0094360285
-0.085100017
0.086371605
-0.010766007
-0.089233243
0.090563625
-0.012151408
-0.093361595
0.094747391
-0.013604357
-0.097779882
0.099233218
-0.015119083
-0.10235649
0.10387159
-0.01670416
-0.10716276
0.10874822
-0.018358952
-0.11218326
0.11383843
-0.020088312
-0.11743639
0.11916615
-0.021894842
-0.1229296
0.12473654
-0.023781759
-0.12867453
0.13056186
-0.025752287
-0.13468213
0.1366531
-0.027809823
-0.14096372
0.14302172
-0.029957799
-0.14753167
0.14968014
-0.032199975
-0.15439798
0.15664068
-0.03453995
-0.16157623
0.16391676
-0.036981636
-0.16908013
0.17152241
-0.039528009
-0.17692421
0.17947122
-0.042183662
-0.18512257
0.1877789
-0.044952496
-0.19369144
0.19646101
-0.04783795
-0.20264742
0.20553367
-0.050843534
-0.21200743
0.21501387
-0.053973309
-0.22178951
0.22492021
-0.057230604
-0.23201258
0.23527087
-0.060618773
-0.24269644
0.24608568
-0.064140659
-0.25386255
0.25738559
-0.067799339
-0.26553201
0.26919194
-0.071596839
-0.27772888
0.28152772
-0.075534858
-0.29047741
0.29441688
-0.079614765
-0.30380332
0.30788478
-0.083837071
-0.31773429
0.32195828
-0.088201625
-0.33229831
0.33666468
-0.09270714
-0.34752684
0.35203432
-0.097351635
-0.36345167
0.36809827
-0.10213169
-0.38010658
0.38488892
-0.10704272
-0.39752767
0.40244115
-0.11207888
-0.41575287
0.42079169
-0.11723244
-0.43482259
0.43997901
-0.12249422
-0.45477856
0.46004343
-0.12785262
-0.47566577
0.4810275
-0.13329468
-0.49753068
0.50297634
-0.13880485
-0.52042348
0.52593753
-0.14436476
-0.54439605
0.54996014
-0.14995333
-0.56950286
0.57509593
-0.155547
-0.59580203
0.60140054
-0.16111834
-0.62335393
0.62893048
-0.16663634
-0.65222215
0.65774577
-0.17206647
-0.68247321
0.68790939
-0.17736875
-0.71417762
0.71948641
-0.18249904
-0.74740836
0.75254566
-0.18740787
-0.78224197
0.78715834
-0.19203878
-0.81875893
0.82339796
-0.19632954
-0.85704289
0.8613424
-0.20021004
-0.89718115
0.90107106
-0.20360239
-0.93926468
0.94266718
-0.20641928
-0.98338904
0.98621683
-0.20856337
-1.0296536
1.0318095
-0.20992593
-1.0781603
1.0795355
-0.21038606
-1.1290152
1.1294888
-0.20980756
-1.1823263
1.1817623
-0.20804487
-1.2382032
1.2364561
-0.20493097
-1.2967642
1.293667
-0.20027849
-1.358129
1.3534942
-0.19388473
-1.4224194
1.4160443
-0.18552973
-1.4897582
1.4814226
-0.17496064
-1.5602767
1.5497276
-0.16191102
-1.6341111
1.6210818
-0.14605895
-1.711426
1.6955945
-0.12719393
-1.7923581
1.7735132
-0.10448338
-1.877041
1.8543493
-0.078769007
-1.9661788
1.9404838
-0.047341391
-2.0577577
2.0263407
-2.1570854
2.1222914
-0.00063445617
-0.050369282
-0.0015042969
-0.063546797
-0.0024013705
-0.061983219
-0.0033603666
-0.067714737
-0.0043297312
-0.06926709
-0.0053757133
-0.073533691
-0.0064376516
-0.076392575
-0.0075793446
-0.0803558
-0.0087469176
-0.083932275
-0.0099892106
-0.087990758
-0.011274061
-0.092076535
-0.012626831
-0.096426882
-0.014036725
-0.10094634
-0.01551336
-0.10568585
-0.017056596
-0.11063973
-0.01867074
-0.11582193
-0.020357916
-0.12124208
-0.022121926
-0.12691015
-0.023965988
-0.13283768
-0.025893702
-0.13903558
-0.027908738
-0.14551618
-0.030014367
-0.15229186
-0.032214706
-0.15937537
-0.034513463
-0.16678081
-0.036915451
-0.17452161
-0.039423503
-0.18261386
-0.042042336
-0.1910719
-0.044775713
-0.19991328
-0.047627952
-0.20915436
-0.050602666
-0.21881391
-0.053703983
-0.2289103
-0.056935291
-0.2394641
-0.060299957
-0.25049677
-0.063801038
-0.26202972
-0.067441032
-0.27408758
-0.071222343
-0.28669469
-0.075146219
-0.29987791
-0.079214246
-0.31366461
-0.083425846
-0.32808493
-0.087780684
-0.34317008
-0.092277223
-0.35895305
-0.096912416
-0.37546913
-0.10168194
-0.39275572
-0.10658075
-0.41085143
-0.11160178
-0.42979872
-0.11673647
-0.4496408
-0.12197457
-0.47042435
-0.12730343
-0.49219824
-0.13270873
-0.51501432
-0.13817385
-0.53892676
-0.14367937
-0.56399285
-0.14920317
-0.59027337
-0.15471999
-0.61783188
-0.16020146
-0.64673505
-0.16561542
-0.67705317
-0.17092551
-0.70886098
-0.1760912
-0.74223561
-0.18106687
-0.77725869
-0.18580113
-0.81401646
-0.19023707
-0.85259809
-0.19431061
-0.89309805
-0.19795038
-0.93561461
-0.20107631
-0.98025199
-0.20360028
-1.0271177
-0.20542271
-1.0763249
-0.20643429
-1.1279897
-0.20650929
-1.1822363
-0.20551235
-1.2391841
-0.20329246
-1.298967
-0.19968055
-1.3617226
-0.19449201
-1.4275886
-0.18751997
-1.4967099
-0.17853837
-1.5692373
-0.16729418
-1.6453338
-0.1535219
-1.7251767
-0.13692055
-1.8089382
-0.11706057
-1.8968807
-0.093995707
-1.9892239
-0.066262543
-2.0854804
-2.1882417
-0.0005718757
-0.049797397
-0.0013840036
-0.062734579
-0.0021886573
-0.061178172
-0.0030956157
-0.066807699
-0.0039863972
-0.068376194
-0.0049650736
-0.072554898
-0.005942963
-0.075414547
-0.0070061592
-0.079292449
-0.0080870548
-0.082851206
-0.0092417563
-0.086835867
-0.010435358
-0.090882725
-0.011693344
-0.095168671
-0.013005817
-0.099633625
-0.014381553
-0.10430985
-0.015820983
-0.10920001
-0.017327811
-0.1143148
-0.018905357
-0.11966421
-0.020556588
-0.12525857
-0.022285774
-0.13110811
-0.024095744
-0.1372252
-0.025990981
-0.14362051
-0.027975009
-0.15030737
-0.030051705
-0.15729816
-0.03222586
-0.16460611
-0.034500752
-0.17224613
-0.036881607
-0.18023236
-0.039371901
-0.18858091
-0.041976734
-0.1973077
-0.044699704
-0.20643059
-0.047546012
-0.21596673
-0.050518829
-0.22593655
-0.053622554
-0.23635936
-0.056861067
-0.24725715
-0.060237137
-0.25865246
-0.063754441
-0.27056899
-0.067415234
-0.2830325
-0.071221842
-0.2960698
-0.075174864
-0.30970996
-0.079275396
-0.32398263
-0.083522992
-0.33892057
-0.087915929
-0.35455804
-0.092452137
-0.37093069
-0.097128281
-0.38807715
-0.10193893
-0.40603817
-0.10687809
-0.42485672
-0.11193781
-0.44457802
-0.11710884
-0.46525
-0.12237928
-0.48692422
-0.12773656
-0.50965317
-0.13316503
-0.53349411
-0.1386465
-0.55850686
-0.14416158
-0.58475342
-0.14968696
-0.61230123
-0.15519676
-0.64121957
-0.16066179
-0.671582
-0.16604918
-0.70346697
-0.17132234
-0.7369553
-0.17643914
-0.77213417
-0.1813541
-0.80909317
-0.18601475
-0.84792843
-0.19036367
-0.88873941
-0.19433584
-0.93163192
-0.1978597
-0.97671676
-0.20085446
-1.0241107
-0.20323026
-1.0739359
-0.204886
-1.1263196
-0.20571349
-1.1813934
-0.20558656
-1.2392945
-0.20436548
-1.3001703
-0.2019018
-1.3641673
-0.19802185
-1.4314484
-0.1925436
-1.5021669
-0.18525583
-1.5765031
-0.17593411
-1.654633
-0.16433037
-1.7367577
-0.15015604
-1.8230902
-0.13311693
-1.913898
-0.1129832
-2.0093378
-0.088930679
-2.1095205
-2.2156553
-0.00051690655
-0.049280401
-0.0012682875
-0.061983061
-0.0020000342
-0.060446449
-0.0028492335
-0.065958332
-0.0036749962
-0.067550235
-0.0045865585
-0.071643163
-0.0054880396
-0.074512892
-0.0064776106
-0.078302694
-0.0074787898
-0.081849834
-0.0085526599
-0.085761794
-0.0096623022
-0.089772868
-0.010833385
-0.093997361
-0.012057102
-0.098409666
-0.01334122
-0.10302548
-0.014687201
-0.10785376
-0.016098899
-0.11290281
-0.017579571
-0.11818322
-0.019132594
-0.12370521
-0.020761419
-0.12947892
-0.022470386
-0.13551584
-0.024262654
-0.14182781
-0.026143289
-0.14842627
-0.028116204
-0.15532475
-0.030185409
-0.16253637
-0.032356088
-0.17007487
-0.034632234
-0.17795559
-0.037018938
-0.18619354
-0.039520602
-0.19480531
-0.042142752
-0.20380765
-0.044888824
-0.2132198
-0.047764037
-0.22306041
-0.050772846
-0.23334955
-0.053919042
-0.24410987
-0.057206604
-0.25536372
-0.060639036
-0.26713528
-0.064218886
-0.27945127
-0.067948453
-0.29233874
-0.071829731
-0.30582706
-0.075863133
-0.31994748
-0.080048758
-0.33473305
-0.084386045
-0.3502187
-0.088872344
-0.36644216
-0.093504867
-0.38344221
-0.098279251
-0.40126117
-0.10318956
-0.41994357
-0.10822929
-0.43953522
-0.11338873
-0.46008724
-0.11865893
-0.48165043
-0.12402708
-0.50428113
-0.12947954
-0.52803745
-0.13500064
-0.55298121
-0.14057177
-0.57917738
-0.14617268
-0.606695
-0.15178053
-0.63560597
-0.15736827
-0.66598806
-0.16290754
-0.697921
-0.16836488
-0.7314907
-0.17370346
-0.76678776
-0.17888209
-0.80390606
-0.18385433
-0.84294701
-0.18856851
-0.8840153
-0.19296678
-0.92722291
-0.19698497
-0.97268694
-0.20055085
-1.0205322
-0.20358409
-1.070889
-0.20599688
-1.1238921
-0.20768393
-1.1796905
-0.20853932
-1.2384219
-0.20843454
-1.3002567
-0.20723697
-1.3653452
-0.20479329
-1.4338711
-0.2009272
-1.5060109
-0.19546158
-1.5819457
-0.18818499
-1.661886
-0.17887676
-1.746042
-0.16727999
-1.8346633
-0.1531341
-1.9280207
-0.13615728
-2.0262937
-0.115811
-2.1298522
-2.2391799
-0.00046300457
-0.04881733
-0.0011678112
-0.061278136
-0.0018233942
-0.059790743
-0.0026125776
-0.06516903
-0.0033619131
-0.066800807
-0.0042163345
-0.070788606
-0.0050510287
-0.073678056
-0.0059747686
-0.077378799
-0.0069049695
-0.080919467
-0.0079057924
-0.084760792
-0.0089411648
-0.088737302
-0.01003561
-0.092902708
-0.01118241
-0.09726264
-0.012388113
-0.10181953
-0.013654885
-0.10658672
-0.014985846
-0.11157157
-0.0163847
-0.11678406
-0.017855208
-0.12223437
-0.019401048
-0.12793273
-0.021026253
-0.13389026
-0.022735548
-0.14011811
-0.024532307
-0.14662907
-0.026422077
-0.1534345
-0.028409495
-0.16054843
-0.030499138
-0.16798466
-0.032696356
-0.17575776
-0.03500644
-0.18388279
-0.037434421
-0.19237661
-0.039985332
-0.20125596
-0.04266449
-0.2105398
-0.045476895
-0.22024709
-0.04842715
-0.2303983
-0.051519748
-0.2410162
-0.054759177
-0.25212313
-0.058148729
-0.26374446
-0.061691613
-0.27590701
-0.065390446
-0.28863841
-0.069247229
-0.30196866
-0.073262799
-0.31593015
-0.077437611
-0.33055633
-0.081770665
-0.34588358
-0.086260811
-0.36194977
-0.090904768
-0.37879582
-0.095698837
-0.39646446
-0.10063852
-0.41500103
-0.1057168
-0.43445385
-0.11092639
-0.4548743
-0.1162581
-0.47631509
-0.12170115
-0.49883416
-0.12724392
-0.52249043
-0.13287185
-0.54734868
-0.13856944
-0.5734748
-0.14431859
-0.60094046
-0.15009891
-0.62981983
-0.15588798
-0.66019269
-0.16165995
-0.6921422
-0.16738555
-0.72575772
-0.17303334
-0.76113198
-0.17856659
-0.79836416
-0.18394522
-0.83755901
-0.18912339
-0.87882698
-0.19405052
-0.92228477
-0.19866966
-0.96805587
-0.20291769
-1.0162712
-0.20672384
-1.0670689
-0.21000764
-1.1205931
-0.21268396
-1.1769977
-0.21464707
-1.2364411
-0.21579636
-1.2990883
-0.21599836
-1.3651227
-0.21512483
-1.4347228
-0.21302181
-1.5080909
-0.20952248
-1.585421
-0.204444
-1.6669397
-0.1975832
-1.7528778
-0.1887123
-1.8435092
-0.17760443
-1.9391039
-0.16397421
-2.0399022
-0.14743702
-2.1463728
-2.2586207
-0.00041328417
-0.048403984
-0.0010769994
-0.060614309
-0.0016703946
-0.059197245
-0.0024042395
-0.064435064
-0.0030765213
-0.066128405
-0.0038798224
-0.069985171
-0.00464697
-0.072910766
-0.0055105181
-0.076515098
-0.0063766063
-0.080053214
-0.0073162723
-0.08382095
-0.008291838
-0.087761546
-0.0093241311
-0.091870213
-0.01040877
-0.096177781
-0.011550728
-0.10067734
-0.012752687
-0.10538451
-0.01401854
-0.11030544
-0.015351779
-0.11545053
-0.016756294
-0.12082954
-0.018236599
-0.12645208
-0.01979671
-0.13232977
-0.021441754
-0.13847266
-0.023176584
-0.1448938
-0.02500639
-0.15160422
-0.026936337
-0.15861797
-0.028972107
-0.16594834
-0.031119593
-0.17360967
-0.033383622
-0.18161811
-0.035770604
-0.18998892
-0.038285952
-0.19873984
-0.040935166
-0.20788975
-0.043723964
-0.21745738
-0.04665705
-0.22746422
-0.049739946
-0.23793223
-0.052976072
-0.24888583
-0.056370048
-0.26034921
-0.059925313
-0.27235037
-0.063644155
-0.28491807
-0.067528637
-0.29808255
-0.071580362
-0.31187665
-0.075799438
-0.32633533
-0.08018578
-0.34149515
-0.084737391
-0.3573959
-0.089452527
-0.37407823
-0.094327916
-0.39158641
-0.099358452
-0.40996761
-0.10453901
-0.42927017
-0.10986377
-0.44954614
-0.11532384
-0.47085135
-0.12091122
-0.4932428
-0.12661445
-0.51678289
-0.13242287
-0.54153558
-0.13832247
-0.56757015
-0.14429817
-0.59495928
-0.15033288
-0.6237792
-0.15640723
-0.65411191
-0.16249946
-0.68604302
-0.16858583
-0.71966381
-0.17463826
-0.75507138
-0.18062624
-0.79236733
-0.18651471
-0.83166094
-0.19226544
-0.87306583
-0.19783449
-0.91670442
-0.20317316
-0.96270493
-0.20822653
-1.0112045
-0.21293318
-1.0623477
-0.2172241
-1.1162865
-0.22102216
-1.1731826
-0.22424329
-1.2332016
-0.22678549
-1.2965263
-0.22854774
-1.3633392
-0.22940542
-1.4338425
-0.22922698
-1.5082454
-0.22786519
-1.5867577
-0.22515598
-1.6696231
-0.22091968
-1.7570878
-0.2149598
-1.8494427
-0.20706152
-1.946976
-0.19697433
-2.0499667
-0.18440131
-2.1589274
-2.2737491
-0.00037068598
-0.048033238
-0.0010035758
-0.059981315
-0.0015423236
-0.058658408
-0.0022302449
-0.06374703
-0.0028454071
-0.065513122
-0.003597859
-0.069232591
-0.0043120685
-0.07219642
-0.0051145563
-0.075712463
-0.005940481
-0.079227131
-0.0068332812
-0.082927981
-0.0077618511
-0.086832792
-0.0087433558
-0.090888512
-0.009776813
-0.095144111
-0.01086655
-0.099587375
-0.012016554
-0.10423426
-0.013230346
-0.10909138
-0.014512792
-0.11416779
-0.015868003
-0.11947402
-0.017300798
-0.12501894
-0.018816602
-0.1308136
-0.020420052
-0.13686881
-0.022117406
-0.14319602
-0.023913936
-0.14980722
-0.025815413
-0.15671599
-0.027828279
-0.16393491
-0.029958282
-0.17147907
-0.032212429
-0.1793633
-0.034596409
-0.18760422
-0.037116096
-0.19621938
-0.039778241
-0.20522676
-0.042587995
-0.21464671
-0.045551089
-0.22450013
-0.048672334
-0.2348099
-0.051956971
-0.24560001
-0.055408161
-0.25689674
-0.059029661
-0.26872747
-0.062824648
-0.28112156
-0.066794844
-0.2941107
-0.070941384
-0.30772832
-0.075264904
-0.32200986
-0.07976532
-0.33699262
-0.084441321
-0.3527176
-0.089291272
-0.36922579
-0.094311923
-0.38656306
-0.099500263
-0.40477634
-0.10485165
-0.4239156
-0.11036052
-0.44403382
-0.11602129
-0.46518684
-0.12182591
-0.48743414
-0.12776688
-0.51083753
-0.13383411
-0.53546359
-0.14001721
-0.5613819
-0.14630446
-0.58866645
-0.15268169
-0.61739591
-0.15913376
-0.64765328
-0.16564284
-0.67952684
-0.17218961
-0.71310933
-0.17875164
-0.74850099
-0.18530356
-0.78580634
-0.19181731
-0.82513734
-0.19826023
-0.86661221
-0.2045965
-0.91035653
-0.210785
-0.9565038
-0.21678004
-1.0051957
-0.22253006
-1.0565828
-0.22797633
-1.110824
-0.23305355
-1.1680878
-0.23768911
-1.228547
-0.24179771
-1.2923971
-0.24528697
-1.3598279
-0.24805733
-1.4310486
-0.24999012
-1.5062876
-0.25095522
-1.5857664
-0.2508167
-1.6697345
-0.24941168
-1.7584653
-0.24656923
-1.8522573
-0.2421075
-1.95141
-0.23579438
-2.0562557
-0.22739274
-2.1673086
-2.2843319
-0.00032707247
-0.047706107
-0.00093396522
-0.059374321
-0.0014239148
-0.058168368
-0.0020667554
-0.06310408
-0.0026401386
-0.064939631
-0.0033669776
-0.068505628
-0.0040487995
-0.071514468
-0.00483602
-0.074925101
-0.005618701
-0.078444297
-0.0064637611
-0.082082757
-0.0073486577
-0.085947717
-0.0082860029
-0.089950975
-0.0092777381
-0.094152166
-0.010327447
-0.098537441
-0.011439501
-0.10312196
-0.012618474
-0.10791215
-0.013868318
-0.11291766
-0.015195024
-0.118147
-0.016603438
-0.12361019
-0.018099273
-0.1293174
-0.019688416
-0.13527927
-0.02137694
-0.14150706
-0.023171237
-0.14801245
-0.025078655
-0.15480806
-0.027104787
-0.16190822
-0.029257256
-0.16932599
-0.031542348
-0.17707755
-0.03396705
-0.1851788
-0.036538025
-0.19364762
-0.039261484
-0.20250245
-0.042143302
-0.21176396
-0.045189346
-0.22145307
-0.048404856
-0.23159328
-0.05179397
-0.2422097
-0.055360989
-0.25332842
-0.059109452
-0.26497759
-0.063041544
-0.27718793
-0.067159502
-0.28999107
-0.071464617
-0.30342138
-0.075957391
-0.31751511
-0.080637582
-0.33231027
-0.085505088
-0.34784775
-0.090557727
-0.36417061
-0.095793834
-0.38132419
-0.10121082
-0.39935636
-0.10680528
-0.41831791
-0.11257352
-0.43826206
-0.11851118
-0.45924536
-0.12461301
-0.48132817
-0.13087316
-0.50457291
-0.13728521
-0.52904668
-0.14384103
-0.55482081
-0.1505322
-0.58196958
-0.1573486
-0.61057332
-0.16427913
-0.64071604
-0.171311
-0.67248769
-0.17842895
-0.70598347
-0.18561627
-0.74130509
-0.19285377
-0.77855953
-0.20011928
-0.8178617
-0.20738768
-0.85933281
-0.21463036
-0.90310188
-0.22181456
-0.94930658
-0.22890383
-0.9980923
-0.23585578
-1.0496154
-0.24262367
-1.1040394
-0.24915332
-1.1615399
-0.25538264
-1.2222979
-0.26124448
-1.2865139
-0.26666461
-1.3543848
-0.27154716
-1.4261415
-0.27580298
-1.5020058
-0.27931665
-1.5822254
-0.28197086
-1.6670519
-0.28363136
-1.7567758
-0.28415446
-1.8517048
-0.28337952
-1.9521557
-0.28110366
-2.0585062
-0.27713745
-2.1712522
-2.290098
-0.00028486016
-0.04742119
-0.00087235078
-0.058786735
-0.0013227556
-0.057717876
-0.0019454191
-0.062481311
-0.0024968899
-0.064388052
-0.0032007026
-0.067801695
-0.003847424
-0.070867619
-0.0046101729
-0.074162213
-0.005361581
-0.077692738
-0.006174322
-0.081269855
-0.0070321482
-0.085089714
-0.007942786
-0.089040149
-0.0089106881
-0.093184058
-0.0099393752
-0.097508532
-0.011033889
-0.1020272
-0.012199068
-0.10674671
-0.013440587
-0.11167585
-0.014763888
-0.11682339
-0.01617502
-0.12219872
-0.017680823
-0.12781123
-0.019287415
-0.13367227
-0.021002432
-0.13979161
-0.022832371
-0.14618204
-0.024784768
-0.15285514
-0.026867359
-0.15982507
-0.029087089
-0.16710565
-0.031451658
-0.17471231
-0.033968092
-0.18266164
-0.036642983
-0.19097193
-0.039483272
-0.19966129
-0.04249514
-0.20875115
-0.045683734
-0.21826345
-0.049053995
-0.2282219
-0.052610757
-0.23865171
-0.056357689
-0.24958015
-0.060297513
-0.26103631
-0.064433049
-0.27305081
-0.068766071
-0.28565633
-0.073297509
-0.29888807
-0.078028319
-0.31278227
-0.082958368
-0.32737802
-0.0880872
-0.34271653
-0.093414414
-0.3588408
-0.09893924
-0.37579655
-0.1046599
-0.39363265
-0.11057487
-0.41239961
-0.11668204
-0.4321513
-0.12297915
-0.45294435
-0.12946367
-0.47483942
-0.13613208
-0.49789992
-0.14298106
-0.52219273
-0.15000635
-0.54779013
-0.15720272
-0.57476736
-0.16456469
-0.60320501
-0.17208509
-0.63318875
-0.17975599
-0.66480931
-0.18756727
-0.69816408
-0.19550846
-0.73335508
-0.20356588
-0.77049251
-0.21172405
-0.8096931
-0.21996539
-0.85108012
-0.22826904
-0.89478588
-0.23661109
-0.94095108
-0.24496339
-0.98972536
-0.25329515
-1.0412677
-0.26156943
-1.0957477
-0.26974562
-1.1533449
-0.27777354
-1.2142495
-0.28560091
-1.2786644
-0.29316215
-1.3467997
-0.30039126
-1.4188868
-0.30720729
-1.4951626
-0.31352133
-1.5758828
-0.31923001
-1.6613137
-0.32422521
-1.7517504
-0.32838977
-1.8475093
-0.33158675
-1.9489279
-0.33365393
-2.0564121
-0.33442295
-2.1704586
-2.2907278
-0.00024643862
-0.047174695
-0.0008227018
-0.058210379
-0.0012428715
-0.057297622
-0.0018905101
-0.06183357
-0.0024229996
-0.063855457
-0.0031017631
-0.067122814
-0.003724153
-0.070245102
-0.004446827
-0.073439403
-0.0051864527
-0.076952964
-0.0059830586
-0.080473089
-0.0068305702
-0.084242028
-0.0077326146
-0.088137917
-0.008696044
-0.092220423
-0.0097248372
-0.096479518
-0.010824737
-0.10092706
-0.012001519
-0.10556966
-0.013261455
-0.11041563
-0.014611287
-0.11547325
-0.016057889
-0.12075178
-0.017608084
-0.12626067
-0.019270625
-0.13200933
-0.021052119
-0.13800967
-0.022961597
-0.14427207
-0.025006518
-0.15080969
-0.027194888
-0.15763612
-0.029534977
-0.16476493
-0.03203435
-0.17221225
-0.034700128
-0.17999511
-0.037539841
-0.18813141
-0.040559565
-0.19664067
-0.043764954
-0.20554479
-0.047161684
-0.21486566
-0.050754162
-0.22462826
-0.054546517
-0.2348581
-0.058541922
-0.24558337
-0.062743043
-0.2568337
-0.067151937
-0.2686403
-0.071770108
-0.28103639
-0.076599093
-0.29405717
-0.081639356
-0.30773992
-0.0868916
-0.32212351
-0.092356397
-0.33724928
-0.098034036
-0.3531605
-0.10392436
-0.36990334
-0.11002806
-0.38752582
-0.11634551
-0.40607877
-0.12287658
-0.42561655
-0.12962162
-0.44619531
-0.13658078
-0.46787593
-0.14375422
-0.49072178
-0.15114117
-0.51480068
-0.15874186
-0.54018391
-0.16655484
-0.56694839
-0.17457863
-0.5951747
-0.18281128
-0.62494903
-0.19124957
-0.65636334
-0.1998897
-0.68951559
-0.20872608
-0.72450962
-0.21775226
-0.76145645
-0.22695991
-0.80047469
-0.23633808
-0.84169024
-0.24587462
-0.8852366
-0.25555423
-0.93125758
-0.26535922
-0.97990523
-0.27526798
-1.0313425
-0.28525556
-1.0857422
-0.29529225
-1.1432886
-0.30534464
-1.2041758
-0.31537075
-1.2686152
-0.32532558
-1.33682
-0.33515875
-1.409027
-0.34480238
-1.4854907
-0.35419179
-1.5664636
-0.36324708
-1.6522275
-0.3718837
-1.7430821
-0.38000331
-1.8393572
-0.38750583
-1.941393
-0.39425534
-2.049634
-0.40012249
-2.1645644
-2.2858673
-0.00021387399
-0.046960765
-0.00079182694
-0.057632336
-0.0011901014
-0.056899264
-0.0018484822
-0.061175089
-0.002352647
-0.063351188
-0.0030251184
-0.066450227
-0.0036460906
-0.069624005
-0.0043634159
-0.072721943
-0.0051047541
-0.076211477
-0.0059010265
-0.079676658
-0.0067556798
-0.0833872
-0.0076693893
-0.08722402
-0.0086504542
-0.091239151
-0.0097037186
-0.095426031
-0.010835872
-0.09979466
-0.012053689
-0.10435158
-0.013364426
-0.1091046
-0.014775535
-0.11406182
-0.016295587
-0.11923138
-0.017932669
-0.12462321
-0.019695229
-0.13024635
-0.021592373
-0.13611208
-0.023632439
-0.14223151
-0.025824334
-0.14861726
-0.02817697
-0.1552829
-0.030697931
-0.16224332
-0.03339522
-0.16951426
-0.036276265
-0.1771133
-0.03934792
-0.18505891
-0.042615468
-0.19337221
-0.04608533
-0.20207392
-0.049761291
-0.2111886
-0.053648001
-0.22074036
-0.057748055
-0.23075675
-0.062064046
-0.24126597
-0.066598653
-0.25229756
-0.071353525
-0.26388375
-0.076329918
-0.27605818
-0.0815293
-0.28885582
-0.086953227
-0.30231386
-0.092602986
-0.31647143
-0.098480168
-0.33136958
-0.10458627
-0.34705167
-0.11092374
-0.36356291
-0.11749481
-0.38095154
-0.12430175
-0.39926834
-0.13134814
-0.41856638
-0.13863641
-0.43890294
-0.14617053
-0.46033737
-0.15395379
-0.4829337
-0.16199002
-0.50675922
-0.1702821
-0.53188615
-0.17883388
-0.55839044
-0.18764868
-0.58635319
-0.19672907
-0.61586136
-0.20607749
-0.64700701
-0.21569604
-0.67988844
-0.22558544
-0.71461085
-0.23574574
-0.75128596
-0.24617552
-0.79003381
-0.25687309
-0.83098057
-0.26783354
-0.87426296
-0.27905116
-0.92002559
-0.29051798
-0.96842275
-0.30222345
-1.0196199
-0.31415435
-1.0737926
-0.32629428
-1.1311284
-0.33862085
-1.1918271
-0.35111196
-1.2561002
-0.36373631
-1.3241699
-0.37645449
-1.3962812
-0.389233
-1.4726827
-0.40201504
-1.5536506
-0.41474436
-1.6394659
-0.42735731
-1.730436
-0.43979493
-1.8268855
-0.45197228
-1.9291817
-0.46379805
-2.0377776
-0.47516928
-2.1531634
-2.275103
-0.00019298525
-0.046767724
-0.00079038301
-0.057034849
-0.0011849746
-0.056504589
-0.0018371504
-0.060522813
-0.002334841
-0.062853393
-0.0030106458
-0.065774306
-0.0036456729
-0.068988852
-0.0043670662
-0.072000414
-0.005129715
-0.07544868
-0.005946412
-0.078859802
-0.0068295589
-0.082503877
-0.0077787673
-0.086274622
-0.0088035602
-0.090214149
-0.0099100759
-0.094319289
-0.011106119
-0.098598368
-0.012399702
-0.10305772
-0.013799418
-0.10770459
-0.015314276
-0.11254664
-0.016953099
-0.1175922
-0.018726041
-0.12284988
-0.020642122
-0.12832984
-0.022711232
-0.1340425
-0.024942416
-0.13999982
-0.02734499
-0.14621413
-0.029927669
-0.15269961
-0.032698682
-0.15947164
-0.035665157
-0.16654705
-0.038834282
-0.17394337
-0.042211498
-0.18168082
-0.045802709
-0.18978004
-0.049611554
-0.19826404
-0.053641946
-0.20715708
-0.05789691
-0.21648417
-0.062378707
-0.22627361
-0.067089469
-0.23655375
-0.072031094
-0.24735435
-0.077204947
-0.25870818
-0.082613191
-0.27064807
-0.0882575
-0.28320948
-0.094140374
-0.29642878
-0.10026452
-0.3103449
-0.10663315
-0.32499835
-0.11325033
-0.34043169
-0.1201202
-0.35668999
-0.12724757
-0.37382087
-0.13463835
-0.39187399
-0.14229831
-0.41090253
-0.15023411
-0.43096294
-0.15845245
-0.45211447
-0.16696084
-0.47442036
-0.17576681
-0.49794787
-0.18487884
-0.52276827
-0.19430466
-0.54895827
-0.20405264
-0.57659832
-0.21413056
-0.60577595
-0.22454725
-0.63658215
-0.23530996
-0.66911685
-0.24642641
-0.70348473
-0.25790383
-0.73979802
-0.2697489
-0.77817727
-0.28196699
-0.81874996
-0.29456306
-0.86165326
-0.30754068
-0.9070331
-0.32090207
-0.95504515
-0.33464819
-1.0058561
-0.34877776
-1.0596438
-0.36328697
-1.1165981
-0.37816899
-1.1769222
-0.39341757
-1.2408268
-0.40901351
-1.3085471
-0.42494493
-1.380321
-0.44118446
-1.4564126
-0.45770704
-1.5370957
-0.47448039
-1.622659
-0.4914613
-1.7134204
-0.5086106
-1.8097006
-0.52588043
-1.9118764
-0.54322441
-2.0204013
-0.56055986
-2.1357955
-2.2579674
-0.0001734996
-0.046594168
-0.00079876022
-0.056409501
-0.0011975049
-0.056105761
-0.0018618612
-0.059858358
-0.0023759972
-0.062339152
-0.0030660522
-0.065084136
-0.0037289496
-0.068325829
-0.0044731737
-0.071256055
-0.0052744765
-0.074647227
-0.0061334774
-0.07800064
-0.0070688641
-0.081568311
-0.00808085
-0.085262443
-0.0091798057
-0.08911498
-0.01037357
-0.093125293
-0.01167134
-0.097300342
-0.013082627
-0.10164616
-0.014617385
-0.10616952
-0.016285949
-0.11087774
-0.018098839
-0.11577894
-0.020066254
-0.12088206
-0.022198886
-0.12619677
-0.02450662
-0.13173428
-0.026998927
-0.13750698
-0.029685231
-0.14352724
-0.032573496
-0.1498107
-0.03567112
-0.15637332
-0.038985326
-0.16323209
-0.04252089
-0.17040698
-0.046282859
-0.17791794
-0.050274888
-0.18578703
-0.054500068
-0.19403778
-0.058961072
-0.2026949
-0.063658879
-0.21178508
-0.068596355
-0.22133475
-0.073774586
-0.23137401
-0.07919522
-0.24193208
-0.084860893
-0.25304073
-0.090773681
-0.26473336
-0.096937622
-0.27704345
-0.10335639
-0.29000775
-0.11003458
-0.30366426
-0.1169777
-0.31805257
-0.12419248
-0.33321403
-0.13168586
-0.34919349
-0.13946593
-0.3660374
-0.14754171
-0.38379454
-0.1559226
-0.40251767
-0.1646188
-0.42226242
-0.17364157
-0.44308701
-0.18300216
-0.46505467
-0.19271303
-0.48823147
-0.20278609
-0.51268921
-0.21323531
-0.53850252
-0.2240736
-0.56575294
-0.23531536
-0.59452646
-0.24697408
-0.62491502
-0.25906473
-0.65701704
-0.27160149
-0.69093799
-0.28459873
-0.72678989
-0.29807165
-0.76469248
-0.31203385
-0.80477482
-0.32649963
-0.84717337
-0.34148278
-0.89203454
-0.35699634
-0.93951477
-0.37305232
-0.98978177
-0.3896625
-1.0430136
-0.40683729
-1.0994015
-0.42458617
-1.1591496
-0.44291285
-1.2224743
-0.46182307
-1.2896091
-0.4813176
-1.3607966
-0.50139648
-1.4363019
-0.52205256
-1.516406
-0.54327081
-1.6014057
-0.56504487
-1.6916102
-0.5873522
-1.787356
-0.61018487
-1.8890067
-0.63352325
-1.9970284
-0.65732913
-2.111954
-2.2339179
-0.0001596411
-0.046434469
-0.00082729316
-0.055741763
-0.0012360864
-0.055696884
-0.0019286693
-0.059165676
-0.0024739958
-0.06179372
-0.0031917653
-0.06436625
-0.0039046818
-0.067612785
-0.004692137
-0.070468461
-0.0055553817
-0.073783829
-0.0064840625
-0.077071794
-0.0075012295
-0.080550961
-0.0086092302
-0.084154244
-0.0098195951
-0.087904395
-0.011142298
-0.09180235
-0.012588126
-0.09585425
-0.0141684
-0.1000656
-0.015894529
-0.10444308
-0.017778055
-0.10899386
-0.019830433
-0.11372618
-0.02206282
-0.11864925
-0.024485665
-0.12377346
-0.027109206
-0.12911023
-0.029942866
-0.13467277
-0.032994316
-0.14047518
-0.036271101
-0.14653326
-0.039779089
-0.15286461
-0.043522929
-0.15948745
-0.047506642
-0.1664224
-0.051732978
-0.17369067
-0.056203858
-0.18131512
-0.060920611
-0.18931991
-0.065884912
-0.19772939
-0.071097839
-0.20657084
-0.076560829
-0.21587033
-0.082276106
-0.22565718
-0.088246143
-0.23596036
-0.09447427
-0.24681078
-0.1009655
-0.25824015
-0.10772417
-0.27028263
-0.11475737
-0.28297223
-0.12207202
-0.29634709
-0.12967752
-0.31044433
-0.1375824
-0.32530619
-0.14579756
-0.34097513
-0.15433507
-0.35749641
-0.1632067
-0.37491913
-0.17242623
-0.39329405
-0.18200821
-0.412676
-0.19196745
-0.43312296
-0.20232038
-0.45469651
-0.21308337
-0.47746279
-0.22427482
-0.50149158
-0.23591227
-0.52685835
-0.24801496
-0.55364292
-0.26060314
-0.58193032
-0.27369705
-0.61181243
-0.28731758
-0.64338705
-0.30148726
-0.67675798
-0.31622825
-0.71203764
-0.331563
-0.74934545
-0.34751517
-0.78880924
-0.36410885
-0.83056506
-0.38136801
-0.87475942
-0.3993165
-0.92154885
-0.4179799
-0.97109935
-0.43738256
-1.0235902
-0.45754886
-1.0792125
-0.4785029
-1.1381709
-0.50026672
-1.2006837
-0.52286536
-1.2669815
-0.54631838
-1.3373126
-0.57064385
-1.4119433
-0.59585983
-1.4911551
-0.62198317
-1.5752458
-0.64902099
-1.6645344
-0.67698613
-1.759352
-0.70589019
-1.8600641
-0.7357626
-1.9671192
-0.76659336
-2.0810841
-2.2023327
-0.00015197157
-0.04628244
-0.00088128666
-0.055012363
-0.0013025928
-0.055275494
-0.0020400493
-0.058428121
-0.0026341825
-0.06119948
-0.0033980894
-0.063602226
-0.0041837535
-0.066826991
-0.0050395309
-0.069612544
-0.005990458
-0.072832745
-0.007020358
-0.076041725
-0.0081547118
-0.079416418
-0.0093994221
-0.082909329
-0.01076758
-0.086536008
-0.012271269
-0.090298413
-0.013923161
-0.094202081
-0.015735962
-0.098252493
-0.017722388
-0.10245632
-0.019894768
-0.10682112
-0.022265058
-0.11135548
-0.024844406
-0.11606946
-0.027643171
-0.12097421
-0.030670219
-0.12608266
-0.033933202
-0.1314092
-0.037438794
-0.13696896
-0.041191429
-0.14277993
-0.045195068
-0.14886021
-0.049451442
-0.15523025
-0.05396221
-0.16191073
-0.058728282
-0.16892361
-0.063749886
-0.17629245
-0.069027859
-0.18404078
-0.074562696
-0.1921933
-0.080356276
-0.2007759
-0.086410587
-0.20981454
-0.092729342
-0.21933683
-0.099316402
-0.22937156
-0.10617798
-0.23994732
-0.11332029
-0.25109581
-0.12075237
-0.26284835
-0.12848277