/*--------------------------------*- C++ -*----------------------------------*\
| =========                 |                                                 |
| \\      /  F ield         | OpenFOAM: The Open Source CFD Toolbox           |
|  \\    /   O peration     | Version:  2512                                  |
|   \\  /    A nd           | Website:  www.openfoam.com                      |
|    \\/     M anipulation  |                                                 |
\*---------------------------------------------------------------------------*/
FoamFile
{
    version     2.0;
    format      ascii;
    arch        "LSB;label=32;scalar=64";
    class       volScalarField;
    location    "0.149";
    object      rho;
}
// * * * * * * * * * * * * * * * * * * * * * * * * * * * * * * * * * * * * * //

dimensions      [1 -3 0 0 0 0 0];

internalField   nonuniform List<scalar> 
16000
(
1.0641432
1.0947488
1.0782513
1.0884858
1.0825258
1.0868864
1.0849883
1.0871407
1.08689
1.0881808
1.0886662
1.0896711
1.090476
1.0914432
1.092402
1.0934248
1.0944834
1.0955873
1.0967335
1.0979225
1.099154
1.1004275
1.1017428
1.1030989
1.1044951
1.1059302
1.107403
1.1089119
1.1104549
1.1120301
1.1136348
1.1152666
1.1169223
1.1185987
1.1202922
1.1219992
1.1237157
1.1254374
1.12716
1.1288792
1.1305905
1.1322894
1.1339714
1.1356322
1.1372676
1.1388737
1.1404466
1.1419829
1.1434794
1.1449332
1.1463419
1.1477031
1.1490151
1.1502764
1.1514858
1.1526425
1.1537459
1.1547956
1.1557916
1.156734
1.1576229
1.1584586
1.1592418
1.159973
1.1606527
1.1612818
1.1618608
1.1623906
1.1628717
1.1633042
1.163688
1.1640236
1.1643129
1.1645578
1.1647581
1.1649256
1.1650654
1.1649743
1.1655943
1.164379
1.0609022
1.0920642
1.0750022
1.085798
1.0795165
1.0842497
1.0821652
1.0845529
1.0842644
1.0856728
1.0862119
1.0872918
1.0881778
1.0892201
1.0902645
1.0913715
1.0925194
1.0937146
1.0949552
1.0962412
1.0975722
1.0989474
1.1003661
1.1018274
1.1033299
1.1048721
1.1064524
1.1080686
1.1097185
1.1113994
1.1131082
1.1148419
1.1165967
1.1183689
1.1201543
1.1219487
1.1237474
1.1255459
1.1273394
1.129123
1.1308921
1.1326419
1.1343678
1.1360655
1.1377309
1.1393601
1.1409497
1.1424964
1.1439976
1.1454507
1.1468539
1.1482055
1.1495041
1.150749
1.1519396
1.1530754
1.1541566
1.1551831
1.1561555
1.1570743
1.1579398
1.1587529
1.1595142
1.1602246
1.1608847
1.1614955
1.1620576
1.1625718
1.1630385
1.163458
1.1638299
1.1641546
1.1644333
1.1646675
1.16486
1.1650202
1.1651176
1.1651409
1.1655611
1.1644786
1.0581011
1.0896109
1.0722276
1.0832994
1.0769249
1.0818096
1.079747
1.0822144
1.0819987
1.0834717
1.0840987
1.0852502
1.0862276
1.0873534
1.0884912
1.0896915
1.0909371
1.0922323
1.0935756
1.0949665
1.0964042
1.0978879
1.0994164
1.1009883
1.1026021
1.1042557
1.105947
1.1076734
1.109432
1.1112195
1.1130325
1.1148669
1.1167186
1.118583
1.1204555
1.1223311
1.1242047
1.1260712
1.1279254
1.1297621
1.1315765
1.1333637
1.135119
1.1368384
1.1385178
1.1401538
1.1417433
1.1432836
1.1447724
1.1462081
1.1475893
1.148915
1.1501847
1.151398
1.1525551
1.1536562
1.1547019
1.1556929
1.1566299
1.1575138
1.1583457
1.1591263
1.1598567
1.1605378
1.1611706
1.1617557
1.1622941
1.1627865
1.1632334
1.1636348
1.1639905
1.1643004
1.1645654
1.1647871
1.1649703
1.1651165
1.1651929
1.1652751
1.1654989
1.1646507
1.0556059
1.0874243
1.0696868
1.0810864
1.0745653
1.0797079
1.0776288
1.0802307
1.0800759
1.0816395
1.0823645
1.083602
1.0846856
1.0859084
1.0871533
1.0884599
1.0898156
1.0912227
1.0926801
1.0941868
1.0957421
1.0973446
1.0989928
1.1006851
1.1024193
1.1041928
1.106003
1.1078466
1.1097199
1.111619
1.1135395
1.1154767
1.1174256
1.1193809
1.1213373
1.123289
1.1252305
1.1271561
1.1290603
1.1309377
1.1327833
1.1345922
1.1363602
1.1380831
1.1397576
1.1413806
1.1429498
1.144463
1.145919
1.1473166
1.1486554
1.1499352
1.1511562
1.152319
1.1534243
1.154473
1.1554664
1.1564055
1.1572918
1.1581265
1.1589109
1.1596461
1.1603334
1.1609739
1.1615685
1.1621181
1.1626236
1.1630855
1.1635045
1.1638804
1.1642129
1.1645016
1.1647468
1.1649507
1.1651175
1.165243
1.1653102
1.165397
1.1655187
1.1648033
1.0534959
1.0856376
1.0675785
1.0792893
1.0725502
1.0779838
1.0759198
1.0786442
1.07858
1.0802349
1.0810781
1.0824087
1.0836098
1.0849387
1.086299
1.0877207
1.0891947
1.0907225
1.0923027
1.0939344
1.0956164
1.0973469
1.099124
1.1009452
1.102808
1.1047089
1.1066443
1.1086101
1.1106018
1.1126145
1.1146429
1.1166812
1.1187236
1.1207641
1.1227964
1.1248143
1.1268116
1.1287823
1.1307207
1.1326213
1.1344792
1.1362898
1.1380492
1.1397539
1.1414012
1.1429888
1.1445152
1.1459793
1.1473805
1.1487189
1.1499949
1.1512093
1.152363
1.1534575
1.1544942
1.1554748
1.1564011
1.1572746
1.1580972
1.1588706
1.1595962
1.1602756
1.1609101
1.1615009
1.1620489
1.1625552
1.1630204
1.1634452
1.1638299
1.1641747
1.1644788
1.1647414
1.1649627
1.1651449
1.1652908
1.1653943
1.1654497
1.1655252
1.1655617
1.1649775
1.0517844
1.0842327
1.0658942
1.0779153
1.0711421
1.0766994
1.074644
1.0775202
1.0775576
1.0793111
1.0802822
1.0817086
1.0830333
1.0844756
1.0859594
1.0875062
1.0891099
1.0907704
1.0924864
1.0942563
1.0960782
1.0979497
1.099868
1.1018299
1.1038316
1.1058688
1.1079369
1.1100305
1.1121441
1.1142716
1.1164066
1.1185424
1.1206722
1.1227889
1.1248858
1.126956
1.1289929
1.1309904
1.1329427
1.1348447
1.1366916
1.1384797
1.1402056
1.1418668
1.1434614
1.1449884
1.1464472
1.1478379
1.1491612
1.150418
1.15161
1.1527387
1.1538061
1.1548146
1.1557661
1.1566631
1.1575078
1.1583023
1.1590488
1.1597493
1.1604055
1.1610191
1.1615915
1.162124
1.1626175
1.163073
1.163491
1.1638722
1.1642169
1.1645249
1.1647954
1.1650273
1.1652205
1.1653767
1.1654971
1.1655766
1.1656172
1.1656662
1.1656422
1.1651629
1.0504672
1.0832222
1.0646315
1.0769578
1.0701251
1.0758632
1.0738804
1.0768637
1.0770331
1.0788511
1.0799596
1.0814904
1.0829527
1.0845255
1.0861504
1.0878413
1.0895934
1.0914055
1.0932757
1.0952015
1.0971801
1.0992082
1.1012819
1.1033969
1.1055481
1.1077302
1.1099369
1.1121619
1.114398
1.116638
1.1188743
1.121099
1.1233045
1.1254829
1.1276269
1.1297292
1.1317833
1.1337831
1.1357231
1.1375989
1.1394064
1.1411429
1.1428062
1.144395
1.1459086
1.1473475
1.1487123
1.1500046
1.1512261
1.1523791
1.1534661
1.1544899
1.1554534
1.1563593
1.1572107
1.1580103
1.1587608
1.1594649
1.1601248
1.1607427
1.1613206
1.1618602
1.162363
1.1628302
1.1632627
1.1636614
1.1640268
1.1643592
1.1646589
1.1649256
1.1651583
1.1653557
1.1655173
1.165644
1.1657357
1.16579
1.1658127
1.1658261
1.165751
1.1653755
1.0494793
1.0825425
1.0637198
1.0764031
1.0695118
1.075471
1.0735035
1.0766655
1.0768771
1.0788191
1.0801054
1.081772
1.083401
1.0851324
1.0869239
1.0887836
1.0907076
1.0926937
1.0947393
1.0968408
1.0989945
1.1011958
1.1034394
1.1057196
1.1080299
1.1103632
1.1127119
1.1150679
1.1174228
1.1197677
1.122094
1.1243928
1.1266554
1.1288738
1.13104
1.1331471
1.1351886
1.1371592
1.1390543
1.1408704
1.1426049
1.1442564
1.1458243
1.1473088
1.1487112
1.1500331
1.1512768
1.1524454
1.1535418
1.1545695
1.1555322
1.1564334
1.1572767
1.1580657
1.1588038
1.1594943
1.1601401
1.160744
1.1613086
1.1618362
1.1623287
1.1627878
1.163215
1.1636114
1.1639779
1.164315
1.1646232
1.1649028
1.1651536
1.1653754
1.1655669
1.1657267
1.165854
1.1659482
1.1660085
1.1660368
1.1660383
1.1660088
1.1658935
1.1656168
1.0488394
1.0822025
1.0631646
1.0762758
1.0692175
1.0753022
1.0734721
1.0767398
1.0772691
1.0793301
1.0808196
1.0826448
1.0844631
1.0863783
1.0883607
1.0904139
1.0925339
1.0947174
1.0969604
1.0992581
1.1016052
1.1039955
1.1064221
1.1088772
1.1113525
1.1138391
1.1163276
1.118808
1.1212705
1.1237048
1.1261012
1.1284499
1.130742
1.132969
1.1351234
1.1371989
1.1391898
1.1410922
1.1429029
1.1446201
1.1462432
1.1477726
1.1492097
1.1505567
1.1518165
1.1529927
1.1540892
1.1551102
1.1560601
1.1569434
1.1577645
1.158528
1.1592378
1.1598981
1.1605126
1.1610848
1.1616179
1.1621147
1.1625778
1.1630094
1.1634115
1.1637856
1.1641332
1.164455
1.164752
1.1650244
1.1652725
1.1654963
1.1656957
1.16587
1.166018
1.1661381
1.1662289
1.1662883
1.1663159
1.166318
1.1662946
1.1662168
1.1660722
1.1658926
1.048591
1.0822473
1.0630119
1.0764859
1.0693617
1.075829
1.0741451
1.0775282
1.0782406
1.080445
1.0821679
1.0841818
1.0862171
1.0883461
1.090548
1.0928227
1.0951653
1.0975711
1.1000345
1.1025487
1.1051064
1.1076993
1.1103181
1.112953
1.1155934
1.1182281
1.1208457
1.1234345
1.1259832
1.1284803
1.1309154
1.1332784
1.1355604
1.1377536
1.1398516
1.1418493
1.1437431
1.1455308
1.1472117
1.1487863
1.1502565
1.1516249
1.1528952
1.1540717
1.1551592
1.156163
1.1570885
1.157941
1.1587261
1.1594492
1.1601153
1.1607292
1.1612957
1.1618189
1.1623027
1.1627506
1.1631659
1.1635512
1.1639091
1.1642416
1.1645506
1.1648373
1.165103
1.1653484
1.1655741
1.1657801
1.1659665
1.1661331
1.1662795
1.1664048
1.1665079
1.1665872
1.1666404
1.1666638
1.1666584
1.1666345
1.1665827
1.1664542
1.1662911
1.1662042
1.0488081
1.0827536
1.0633348
1.0770314
1.0700689
1.0766714
1.0753457
1.0787769
1.0798746
1.0822464
1.0842373
1.0864759
1.0887597
1.0911357
1.0935884
1.0961147
1.0987082
1.1013619
1.104068
1.1068171
1.1095993
1.1124034
1.1152175
1.118029
1.1208246
1.1235909
1.1263146
1.1289823
1.1315815
1.1341003
1.136528
1.1388552
1.1410741
1.1431786
1.1451645
1.147029
1.1487715
1.1503927
1.1518947
1.1532811
1.1545563
1.1557257
1.1567952
1.1577711
1.1586602
1.1594689
1.1602039
1.1608717
1.1614785
1.16203
1.1625318
1.162989
1.1634062
1.1637876
1.1641372
1.1644582
1.1647536
1.1650261
1.1652777
1.1655105
1.1657259
1.165925
1.1661086
1.1662775
1.1664316
1.1665711
1.1666957
1.1668049
1.1668981
1.1669743
1.1670324
1.1670707
1.1670858
1.1670731
1.1670357
1.1669865
1.1669032
1.1667248
1.1665549
1.1665543
1.0495488
1.0837822
1.0642185
1.0782931
1.0715316
1.0783015
1.0771958
1.0808497
1.0822599
1.0848327
1.087126
1.0896303
1.0921989
1.0948592
1.0975978
1.1004085
1.1032822
1.106209
1.1091776
1.1121756
1.1151894
1.1182044
1.1212056
1.1241772
1.1271035
1.1299687
1.1327577
1.1354564
1.1380519
1.1405327
1.1428896
1.145115
1.1472039
1.1491531
1.1509619
1.1526313
1.1541642
1.1555649
1.156839
1.1579932
1.1590347
1.1599714
1.1608112
1.1615622
1.1622323
1.1628294
1.1633607
1.1638332
1.1642535
1.1646276
1.1649609
1.1652585
1.1655249
1.165764
1.1659794
1.1661742
1.166351
1.166512
1.166659
1.1667938
1.1669173
1.1670304
1.1671338
1.1672276
1.1673119
1.1673863
1.1674503
1.1675033
1.1675443
1.1675723
1.1675862
1.1675842
1.1675619
1.1675141
1.167447
1.167373
1.1672556
1.1670312
1.1668673
1.1669459
1.0508003
1.0853176
1.0656452
1.0800685
1.0736162
1.080542
1.0798549
1.0836561
1.0854855
1.0883066
1.0909457
1.0937654
1.0966625
1.0996496
1.1027127
1.1058416
1.1090235
1.1122443
1.1154886
1.1187394
1.1219793
1.1251897
1.1283519
1.1314472
1.1344574
1.1373654
1.1401555
1.1428138
1.145329
1.1476921
1.1498969
1.15194
1.1538205
1.1555399
1.1571021
1.1585127
1.1597786
1.1609082
1.1619104
1.1627948
1.1635711
1.164249
1.1648381
1.1653477
1.1657864
1.1661626
1.1664839
1.1667573
1.1669892
1.1671855
1.1673513
1.1674913
1.1676096
1.1677097
1.1677946
1.167867
1.1679291
1.1679826
1.1680291
1.1680697
1.1681052
1.168136
1.1681624
1.1681845
1.1682018
1.1682139
1.1682199
1.168219
1.16821
1.1681918
1.1681635
1.1681229
1.1680646
1.1679842
1.1678907
1.1677925
1.1676387
1.167375
1.1672304
1.1673797
1.052648
1.0874383
1.0677224
1.082593
1.0763992
1.0835877
1.0833776
1.0873845
1.0896806
1.0928096
1.095843
1.0990338
1.1023087
1.1056678
1.1090941
1.1125718
1.1160829
1.119608
1.1231264
1.1266161
1.1300549
1.1334201
1.1366898
1.1398428
1.1428601
1.1457248
1.1484229
1.1509435
1.1532795
1.1554267
1.1573847
1.1591557
1.1607449
1.1621593
1.1634082
1.1645017
1.165451
1.1662679
1.1669642
1.1675516
1.1680417
1.1684453
1.1687728
1.1690339
1.1692375
1.1693918
1.1695041
1.1695812
1.1696289
1.1696525
1.1696567
1.1696454
1.1696221
1.1695898
1.169551
1.1695077
1.1694616
1.1694141
1.169366
1.1693183
1.1692711
1.1692248
1.1691792
1.169134
1.1690886
1.1690423
1.1689941
1.1689428
1.168887
1.1688257
1.1687579
1.168681
1.1685891
1.1684799
1.168364
1.1682421
1.1680514
1.1677596
1.1676472
1.1678501
1.0551499
1.0901911
1.0705696
1.085875
1.0800584
1.0875182
1.0879093
1.0921564
1.094996
1.0985107
1.1019993
1.1056244
1.1093297
1.1131043
1.1169255
1.1207709
1.1246159
1.1284343
1.1321993
1.1358834
1.1394594
1.1429016
1.1461861
1.1492922
1.1522027
1.1549046
1.1573892
1.1596523
1.1616936
1.163517
1.165129
1.1665394
1.1677597
1.1688028
1.1696828
1.170414
1.1710109
1.1714877
1.1718581
1.172135
1.1723306
1.1724562
1.172522
1.1725375
1.172511
1.1724502
1.1723617
1.1722513
1.1721244
1.1719852
1.1718377
1.1716851
1.1715301
1.1713751
1.1712218
1.1710717
1.170926
1.1707854
1.1706506
1.1705216
1.1703987
1.1702817
1.17017
1.1700632
1.1699604
1.1698606
1.1697628
1.1696653
1.1695669
1.1694664
1.1693627
1.1692525
1.1691304
1.1689971
1.1688633
1.1687178
1.1684913
1.1681864
1.1681175
1.1683524
1.0583729
1.0936077
1.074351
1.0900256
1.0847936
1.0924897
1.0936181
1.0981865
1.1016493
1.1056408
1.1096503
1.1137702
1.1179513
1.1221719
1.1264015
1.1306089
1.1347613
1.1388247
1.1427655
1.1465514
1.1501526
1.1535433
1.1567022
1.1596136
1.1622675
1.1646594
1.1667901
1.1686651
1.1702939
1.1716893
1.1728661
1.1738409
1.1746313
1.1752549
1.1757295
1.1760722
1.1762991
1.1764258
1.1764662
1.1764336
1.1763397
1.1761951
1.1760094
1.175791
1.1755474
1.1752851
1.1750096
1.174726
1.1744383
1.17415
1.173864
1.1735829
1.1733085
1.1730423
1.1727857
1.1725394
1.1723039
1.1720797
1.1718667
1.1716649
1.171474
1.1712934
1.1711225
1.1709605
1.1708063
1.1706587
1.1705165
1.1703779
1.1702416
1.1701066
1.1699711
1.1698313
1.169683
1.1695308
1.1693833
1.1692148
1.1689551
1.1686538
1.1686383
1.1688783
1.0623992
1.0977767
1.0791536
1.0952065
1.0907524
1.0987534
1.100774
1.105759
1.109924
1.1144809
1.1190703
1.1237322
1.1284157
1.133086
1.1377017
1.1422204
1.1465995
1.1507979
1.154778
1.158507
1.1619588
1.1651141
1.1679615
1.1704967
1.1727223
1.1746467
1.1762831
1.1776486
1.1787627
1.1796467
1.1803225
1.1808121
1.181137
1.1813179
1.1813741
1.1813236
1.1811828
1.1809668
1.1806889
1.1803613
1.1799944
1.1795977
1.1791793
1.1787462
1.1783045
1.1778595
1.1774155
1.1769763
1.1765448
1.1761235
1.1757146
1.1753194
1.1749393
1.1745751
1.1742272
1.173896
1.1735816
1.1732837
1.1730021
1.1727363
1.1724857
1.1722494
1.1720265
1.171816
1.1716168
1.1714275
1.1712465
1.1710724
1.1709035
1.1707389
1.1705761
1.1704109
1.1702413
1.1700753
1.1699176
1.169728
1.16944
1.1691554
1.1692015
1.1694213
1.0674144
1.103155
1.0852312
1.101746
1.0982875
1.1066442
1.109705
1.1152086
1.1201428
1.1253449
1.1305599
1.1357854
1.1409593
1.1460297
1.1509411
1.1556402
1.1600786
1.1642144
1.1680147
1.1714563
1.1745262
1.1772212
1.1795467
1.1815156
1.1831466
1.1844626
1.1854893
1.1862541
1.1867846
1.1871082
1.1872511
1.1872379
1.1870917
1.1868334
1.186482
1.1860547
1.1855665
1.1850307
1.1844592
1.183862
1.183248
1.1826247
1.1819986
1.181375
1.1807585
1.1801529
1.1795613
1.1789862
1.1784296
1.1778929
1.1773774
1.1768836
1.1764122
1.1759633
1.1755368
1.1751325
1.17475
1.1743888
1.1740482
1.1737273
1.1734253
1.1731412
1.1728737
1.1726218
1.1723841
1.1721592
1.1719455
1.1717413
1.1715454
1.1713562
1.1711709
1.1709851
1.1707996
1.1706243
1.1704584
1.170251
1.1699456
1.1696861
1.1697911
1.1699881
1.0737122
1.1099719
1.0927841
1.1099917
1.1077587
1.11651
1.1207652
1.1269139
1.1326819
1.1385906
1.1444397
1.1501871
1.1557529
1.161068
1.1660681
1.1706991
1.1749192
1.1787003
1.1820283
1.1849021
1.1873319
1.1893372
1.1909445
1.192185
1.1930928
1.193703
1.1940508
1.1941698
1.1940921
1.1938472
1.1934622
1.1929613
1.1923665
1.1916968
1.1909692
1.1901984
1.189397
1.1885759
1.1877445
1.1869107
1.1860811
1.1852612
1.1844558
1.1836685
1.1829023
1.1821597
1.1814425
1.1807521
1.1800894
1.179455
1.1788493
1.1782723
1.1777238
1.1772034
1.1767106
1.1762447
1.175805
1.1753904
1.1750001
1.1746329
1.1742877
1.1739634
1.1736586
1.173372
1.1731023
1.1728479
1.1726072
1.1723786
1.172161
1.1719523
1.1717492
1.1715482
1.1713524
1.1711716
1.1709984
1.1707771
1.1704687
1.1702437
1.1703985
1.1705691
1.0815663
1.118496
1.1022876
1.1202098
1.1195832
1.1288156
1.1344269
1.141365
1.1479958
1.1545929
1.1609719
1.1670564
1.1727555
1.1779985
1.1827315
1.1869204
1.1905508
1.1936257
1.196163
1.1981921
1.1997508
1.2008818
1.2016303
1.2020419
1.2021609
1.2020291
1.2016853
1.2011648
1.2004991
1.1997164
1.1988412
1.197895
1.1968964
1.1958611
1.1948029
1.1937331
1.1926614
1.1915959
1.1905434
1.1895093
1.1884981
1.1875134
1.1865581
1.1856344
1.1847438
1.1838875
1.1830662
1.1822803
1.1815299
1.1808149
1.1801347
1.179489
1.1788768
1.1782975
1.17775
1.1772332
1.1767462
1.1762876
1.1758563
1.175451
1.1750704
1.1747131
1.1743778
1.174063
1.1737673
1.1734891
1.1732269
1.1729793
1.1727449
1.1725215
1.1723054
1.1720946
1.1718939
1.171711
1.1715311
1.1713002
1.1710027
1.1708224
1.1710158
1.1711487
1.0911819
1.129024
1.1145034
1.1330075
1.1344514
1.1442828
1.1513322
1.1591159
1.1664916
1.1735585
1.1801409
1.1861536
1.1915236
1.1962101
1.2001995
1.2035023
1.2061486
1.2081829
1.209659
1.2106358
1.2111735
1.2113313
1.2111651
1.2107267
1.210063
1.2092156
1.2082214
1.2071122
1.2059156
1.2046552
1.203351
1.2020199
1.2006761
1.1993313
1.1979954
1.1966763
1.1953807
1.1941138
1.1928798
1.191682
1.1905228
1.1894042
1.1883273
1.1872931
1.1863018
1.1853536
1.1844483
1.1835854
1.1827642
1.181984
1.1812437
1.1805424
1.1798789
1.1792519
1.1786602
1.1781023
1.1775771
1.177083
1.1766186
1.1761826
1.1757735
1.1753898
1.1750301
1.1746929
1.1743767
1.17408
1.1738014
1.1735395
1.1732928
1.1730589
1.1728344
1.1726188
1.172418
1.172236
1.1720514
1.1718157
1.1715389
1.17141
1.1716262
1.1717111
1.1033631
1.1424604
1.1302236
1.1493611
1.153306
1.1637607
1.1720802
1.1804949
1.1881985
1.1952024
1.2013793
1.2066853
1.2111084
1.2146727
1.2174273
1.2194396
1.2207869
1.2215505
1.2218113
1.2216459
1.2211252
1.2203129
1.2192655
1.2180318
1.216654
1.2151682
1.2136046
1.2119886
1.2103414
1.2086807
1.2070207
1.2053733
1.203748
1.2021526
1.2005932
1.1990745
1.1976002
1.1961732
1.1947953
1.193468
1.192192
1.1909676
1.189795
1.1886737
1.1876031
1.1865825
1.1856109
1.1846872
1.1838101
1.1829784
1.1821906
1.1814453
1.1807411
1.1800763
1.1794495
1.178859
1.1783035
1.1777812
1.1772908
1.1768306
1.176399
1.1759946
1.175616
1.1752615
1.1749297
1.1746191
1.1743283
1.1740563
1.1738012
1.1735604
1.1733315
1.1731155
1.1729181
1.1727389
1.1725528
1.17232
1.172071
1.1719879
1.1722065
1.1722429
1.1195778
1.1599178
1.1507849
1.1702708
1.1769823
1.1878448
1.1968083
1.2051675
1.212386
1.2184851
1.223445
1.2273159
1.2301764
1.2321285
1.2332842
1.2337569
1.2336553
1.2330794
1.2321186
1.2308512
1.2293444
1.2276551
1.2258311
1.223912
1.2219306
1.2199138
1.2178832
1.2158566
1.2138481
1.2118691
1.2099284
1.2080331
1.2061884
1.2043984
1.202666
1.2009933
1.1993815
1.1978314
1.1963431
1.1949163
1.1935507
1.1922453
1.190999
1.1898108
1.1886792
1.1876028
1.1865801
1.1856094
1.184689
1.1838173
1.1829926
1.1822131
1.1814771
1.1807828
1.1801286
1.1795127
1.1789335
1.1783893
1.1778785
1.1773995
1.1769506
1.1765304
1.1761373
1.1757698
1.1754265
1.1751059
1.1748068
1.1745279
1.1742675
1.174023
1.173793
1.1735797
1.1733875
1.1732123
1.1730277
1.1728055
1.1725901
1.1725428
1.1727452
1.1727497
1.1414764
1.1826227
1.177499
1.1965874
1.2055836
1.2161666
1.2246322
1.2317812
1.2374218
1.241666
1.2446278
1.2464659
1.2473432
1.2474202
1.2468441
1.2457458
1.2442382
1.2424165
1.2403602
1.2381343
1.2357921
1.2333762
1.230921
1.2284539
1.2259963
1.2235654
1.2211744
1.2188334
1.2165501
1.2143305
1.2121786
1.2100974
1.2080888
1.2061537
1.2042926
1.2025053
1.2007913
1.1991497
1.1975792
1.1960784
1.1946459
1.1932799
1.1919786
1.1907401
1.1895626
1.1884441
1.1873826
1.1863762
1.1854229
1.1845207
1.1836676
1.1828618
1.1821013
1.1813843
1.1807089
1.1800734
1.1794759
1.1789148
1.1783883
1.1778949
1.1774329
1.1770008
1.176597
1.17622
1.1758684
1.1755409
1.1752363
1.1749533
1.17469
1.1744443
1.1742158
1.174007
1.1738207
1.1736494
1.1734688
1.1732626
1.1730839
1.1730686
1.1732481
1.1732088
1.1716504
1.2111653
1.2112544
1.2289414
1.237855
1.2467583
1.2533213
1.2580732
1.2611321
1.2627771
1.2632486
1.2627809
1.2615761
1.2598064
1.2576137
1.2551133
1.2523972
1.2495383
1.2465938
1.2436083
1.2406162
1.237644
1.234712
1.2318353
1.2290253
1.2262902
1.2236361
1.2210668
1.2185849
1.2161919
1.2138882
1.2116735
1.2095473
1.2075081
1.2055547
1.2036852
1.2018977
1.20019
1.1985602
1.1970058
1.1955246
1.1941143
1.1927726
1.1914972
1.1902857
1.1891359
1.1880455
1.1870123
1.1860341
1.1851087
1.1842341
1.1834082
1.182629
1.1818945
1.1812028
1.180552
1.1799405
1.1793663
1.1788278
1.1783234
1.1778514
1.1774103
1.1769985
1.1766146
1.1762573
1.1759252
1.1756172
1.175332
1.1750676
1.1748226
1.1745971
1.1743937
1.174213
1.1740459
1.1738721
1.1736858
1.1735415
1.1735462
1.1736963
1.1736398
1.2126192
1.2471404
1.2500909
1.2640654
1.2715942
1.2771647
1.2802715
1.2815993
1.2814623
1.280229
1.2781752
1.2755296
1.2724686
1.269129
1.2656147
1.2620043
1.2583566
1.2547154
1.251113
1.2475729
1.2441122
1.2407429
1.237473
1.2343081
1.2312512
1.2283039
1.2254666
1.2227386
1.2201187
1.2176052
1.2151958
1.2128882
1.2106797
1.2085676
1.2065491
1.2046214
1.2027815
1.2010266
1.199354
1.1977606
1.1962439
1.194801
1.1934293
1.1921261
1.1908889
1.1897152
1.1886026
1.1875486
1.186551
1.1856074
1.1847157
1.1838738
1.1830795
1.1823309
1.181626
1.1809629
1.1803398
1.179755
1.1792067
1.1786933
1.1782131
1.1777648
1.1773467
1.1769574
1.1765957
1.1762603
1.1759501
1.1756635
1.1753992
1.1751559
1.1749341
1.1747357
1.1745596
1.1743969
1.1742328
1.174069
1.173954
1.1739641
1.174076
1.1740127
1.2617856
1.2879188
1.2921697
1.2998413
1.3027199
1.3035902
1.3025294
1.3002189
1.2970139
1.2932232
1.2890608
1.2846844
1.2802061
1.2757054
1.2712385
1.2668443
1.2625493
1.2583715
1.2543221
1.2504082
1.2466331
1.2429982
1.2395029
1.2361456
1.2329237
1.2298342
1.2268737
1.2240385
1.2213247
1.2187286
1.2162462
1.2138736
1.2116071
1.2094429
1.2073774
1.205407
1.2035283
1.2017378
1.2000324
1.1984089
1.1968641
1.1953952
1.1939991
1.1926732
1.1914146
1.1902208
1.1890892
1.1880173
1.1870027
1.1860431
1.1851363
1.18428
1.1834722
1.1827108
1.1819938
1.1813194
1.1806857
1.180091
1.1795336
1.1790119
1.1785242
1.178069
1.177645
1.1772507
1.1768849
1.1765465
1.1762341
1.1759465
1.1756823
1.1754409
1.1752226
1.1750281
1.1748557
1.1746979
1.1745458
1.174405
1.1743115
1.1743118
1.1743768
1.1743212
1.3165162
1.3282092
1.3296417
1.3297332
1.327082
1.3231885
1.3183656
1.3130469
1.3074686
1.3018025
1.296157
1.2906032
1.2851857
1.2799316
1.2748566
1.2699685
1.2652698
1.2607599
1.2564356
1.2522925
1.2483253
1.2445283
1.2408954
1.2374204
1.2340974
1.2309204
1.2278837
1.2249817
1.2222091
1.2195607
1.2170316
1.214617
1.2123126
1.2101139
1.2080169
1.2060175
1.204112
1.2022967
1.2005682
1.1989229
1.1973578
1.1958696
1.1944554
1.1931123
1.1918375
1.1906281
1.1894818
1.1883958
1.1873679
1.1863955
1.1854766
1.1846088
1.18379
1.1830182
1.1822914
1.1816077
1.1809654
1.1803626
1.1797977
1.1792691
1.1787751
1.1783144
1.1778854
1.177487
1.1771179
1.1767768
1.1764627
1.1761742
1.1759105
1.1756708
1.1754552
1.1752637
1.1750942
1.1749419
1.1748024
1.1746814
1.174601
1.1745848
1.1746116
1.1745723
1.3664817
1.3607261
1.3563553
1.3503835
1.3431884
1.3357738
1.3283115
1.3209852
1.3138779
1.307035
1.3004764
1.294207
1.2882237
1.2825182
1.27708
1.2718972
1.2669578
1.2622496
1.257761
1.2534807
1.2493983
1.2455039
1.241788
1.2382421
1.234858
1.231628
1.2285451
1.2256025
1.222794
1.2201137
1.2175561
1.215116
1.2127884
1.2105686
1.2084522
1.206435
1.204513
1.2026824
1.2009395
1.1992808
1.197703
1.1962029
1.1947774
1.1934234
1.1921383
1.1909192
1.1897635
1.1886685
1.187632
1.1866515
1.1857246
1.1848493
1.1840233
1.1832446
1.1825113
1.1818214
1.1811732
1.1805649
1.1799948
1.1794614
1.1789629
1.1784981
1.1780656
1.177664
1.1772921
1.1769488
1.1766329
1.1763434
1.1760794
1.1758403
1.1756259
1.1754355
1.1752675
1.1751193
1.1749895
1.1748821
1.1748082
1.1747769
1.1747754
1.174753
1.3934885
1.3821726
1.3713757
1.3619271
1.3526094
1.3436192
1.3350325
1.326866
1.3191202
1.3117792
1.3048232
1.2982297
1.2919764
1.2860416
1.2804049
1.2750475
1.269952
1.2651023
1.2604839
1.2560833
1.2518884
1.2478879
1.2440714
1.2404295
1.2369534
1.233635
1.2304669
1.2274421
1.224554
1.2217967
1.2191643
1.2166517
1.2142537
1.2119657
1.209783
1.2077016
1.2057173
1.2038263
1.202025
1.2003097
1.1986772
1.1971242
1.1956476
1.1942445
1.1929119
1.1916471
1.1904475
1.1893105
1.1882335
1.1872143
1.1862505
1.1853399
1.1844803
1.1836697
1.1829061
1.1821874
1.1815121
1.1808782
1.1802841
1.1797281
1.1792087
1.1787243
1.1782737
1.1778555
1.1774685
1.1771115
1.1767834
1.176483
1.1762097
1.1759629
1.175742
1.1755462
1.1753742
1.1752246
1.175097
1.174994
1.1749207
1.17488
1.1748642
1.1748535
1.1643151
1.1704137
1.1831826
1.1944779
1.1985665
1.1983911
1.1993592
1.1997528
1.1999021
1.1998279
1.1995214
1.199083
1.1985117
1.1978716
1.1971896
1.196479
1.1957372
1.194969
1.1941789
1.1933703
1.1925464
1.1917101
1.190864
1.1900104
1.1891514
1.1882891
1.1874254
1.186562
1.1857006
1.184843
1.1839905
1.1831448
1.1823073
1.1814794
1.1806624
1.1798578
1.1790668
1.1782907
1.1775307
1.1767882
1.1760644
1.1753604
1.1746775
1.1740168
1.1733795
1.1727666
1.1721793
1.1716185
1.1710852
1.1705801
1.1701041
1.1696577
1.1692415
1.1688557
1.1685005
1.1681761
1.1678821
1.1676182
1.1673839
1.1671781
1.1669996
1.1668467
1.1667177
1.1666104
1.1665228
1.1664512
1.1663951
1.166346
1.166314
1.1662667
1.166261
1.1661697
1.1662221
1.1660011
1.1662139
1.1656974
1.1662162
1.1652411
1.1662032
1.164598
1.1676506
1.1757885
1.1918811
1.1969697
1.1970468
1.1965688
1.1958456
1.1954772
1.1950523
1.1945853
1.1940848
1.1936193
1.193152
1.1926819
1.1921879
1.1916698
1.1911271
1.1905613
1.189973
1.1893628
1.1887323
1.1880827
1.1874159
1.1867336
1.1860377
1.1853302
1.1846131
1.1838883
1.183158
1.1824239
1.181688
1.1809522
1.1802184
1.1794883
1.1787638
1.1780465
1.1773382
1.1766406
1.1759552
1.1752837
1.1746276
1.1739885
1.1733677
1.1727668
1.1721872
1.1716301
1.1710968
1.1705884
1.1701062
1.1696509
1.1692234
1.1688245
1.1684546
1.1681141
1.1678033
1.167522
1.1672703
1.1670475
1.1668531
1.1666861
1.166545
1.1664282
1.1663337
1.1662595
1.1662033
1.1661617
1.1661335
1.1661114
1.1661034
1.1660809
1.1660937
1.1660274
1.1660903
1.1658959
1.1661093
1.1656269
1.1661445
1.1651834
1.1661825
1.1645249
1.1584108
1.1740879
1.1861078
1.1907601
1.1905919
1.1900736
1.1894655
1.1892637
1.1889583
1.1887611
1.1884981
1.1882475
1.1879471
1.1876317
1.1872855
1.1869183
1.1865263
1.1861113
1.1856737
1.1852142
1.1847339
1.1842339
1.1837154
1.1831798
1.1826284
1.1820627
1.1814842
1.1808944
1.180295
1.1796877
1.1790742
1.1784562
1.1778357
1.1772144
1.1765941
1.1759768
1.1753642
1.1747583
1.1741607
1.1735734
1.1729981
1.1724365
1.1718902
1.1713611
1.1708505
1.1703601
1.1698914
1.1694455
1.1690238
1.1686273
1.1682569
1.1679134
1.1675974
1.1673093
1.1670494
1.1668176
1.1666138
1.1664375
1.166288
1.1661642
1.1660646
1.1659875
1.1659311
1.165893
1.165871
1.1658617
1.1658637
1.1658703
1.1658881
1.1658914
1.1659245
1.1658833
1.1659585
1.1657898
1.1660059
1.1655551
1.1660715
1.1651262
1.1661603
1.164452
1.1573701
1.1770922
1.1846181
1.1879376
1.1867716
1.1863901
1.1856589
1.1854063
1.1849557
1.1846548
1.1842762
1.1839653
1.1836284
1.1833117
1.182982
1.1826505
1.1823091
1.1819594
1.1815991
1.1812273
1.1808434
1.1804467
1.180037
1.1796143
1.1791787
1.1787307
1.1782708
1.1777997
1.1773186
1.1768283
1.1763302
1.1758256
1.1753161
1.1748031
1.1742884
1.1737735
1.1732603
1.1727506
1.1722462
1.1717488
1.1712604
1.1707827
1.1703175
1.1698667
1.1694318
1.1690147
1.1686168
1.1682396
1.1678843
1.1675522
1.1672442
1.1669613
1.1667039
1.1664727
1.1662678
1.1660893
1.165937
1.1658103
1.1657085
1.1656305
1.1655748
1.1655394
1.1655227
1.1655223
1.1655357
1.1655597
1.1655929
1.1656288
1.165673
1.1657022
1.1657564
1.1657396
1.1658288
1.1656836
1.1659055
1.1654819
1.1660013
1.1650705
1.1661334
1.1643875
1.1550879
1.1751079
1.1804983
1.1831464
1.1814951
1.181368
1.1806005
1.180474
1.1800349
1.1798326
1.1795156
1.1792914
1.1790231
1.178784
1.1785293
1.1782784
1.1780201
1.1777573
1.177487
1.1772083
1.1769205
1.1766229
1.1763149
1.1759962
1.1756666
1.1753263
1.1749753
1.1746141
1.1742431
1.1738631
1.1734748
1.1730794
1.1726778
1.1722714
1.1718615
1.1714496
1.1710372
1.170626
1.1702177
1.1698141
1.1694168
1.1690277
1.1686487
1.1682816
1.167928
1.1675898
1.1672684
1.1669655
1.1666823
1.16642
1.1661797
1.1659624
1.1657686
1.1655988
1.1654534
1.1653323
1.1652352
1.1651616
1.1651108
1.1650816
1.1650723
1.1650811
1.1651062
1.1651452
1.1651957
1.1652545
1.1653198
1.1653859
1.1654574
1.165513
1.165589
1.1655963
1.1657006
1.1655787
1.1658071
1.1654088
1.1659323
1.1650163
1.1661034
1.1643297
1.1497862
1.1720141
1.1757703
1.1781985
1.1762482
1.1764747
1.1756774
1.1757018
1.1752823
1.1751722
1.1748979
1.1747469
1.1745383
1.1743718
1.1741864
1.1740094
1.1738257
1.1736405
1.17345
1.1732537
1.1730509
1.1728408
1.1726229
1.1723967
1.1721619
1.1719182
1.1716656
1.1714042
1.1711342
1.1708559
1.1705699
1.1702769
1.1699776
1.169673
1.1693643
1.1690526
1.1687392
1.1684257
1.1681134
1.1678041
1.1674994
1.1672011
1.1669108
1.1666303
1.1663614
1.1661056
1.1658647
1.1656399
1.1654328
1.1652444
1.1650759
1.1649281
1.1648017
1.1646971
1.1646146
1.1645542
1.1645154
1.1644979
1.1645007
1.1645225
1.1645618
1.1646167
1.1646852
1.164765
1.1648537
1.1649482
1.1650465
1.1651436
1.1652428
1.1653251
1.1654232
1.1654542
1.1655742
1.1654755
1.165711
1.1653365
1.1658649
1.1649641
1.1660724
1.1642764
1.1444476
1.1693159
1.1708742
1.1732799
1.1711238
1.1716389
1.170797
1.170967
1.1705708
1.1705658
1.1703484
1.1702825
1.1701408
1.17005
1.1699334
1.1698284
1.1697159
1.1696037
1.1694879
1.1693681
1.1692438
1.1691141
1.1689786
1.1688367
1.168688
1.1685322
1.1683691
1.1681987
1.1680211
1.1678363
1.1676448
1.1674471
1.1672436
1.1670352
1.1668227
1.1666072
1.1663896
1.1661713
1.1659535
1.1657377
1.1655255
1.1653183
1.1651179
1.1649257
1.1647434
1.1645726
1.1644147
1.1642712
1.1641433
1.164032
1.1639386
1.1638636
1.1638079
1.1637717
1.1637552
1.1637583
1.1637807
1.1638217
1.1638804
1.1639554
1.1640452
1.1641478
1.1642612