/*--------------------------------*- C++ -*----------------------------------*\
| =========                 |                                                 |
| \\      /  F ield         | OpenFOAM: The Open Source CFD Toolbox           |
|  \\    /   O peration     | Version:  2512                                  |
|   \\  /    A nd           | Website:  www.openfoam.com                      |
|    \\/     M anipulation  |                                                 |
\*---------------------------------------------------------------------------*/
FoamFile
{
    version     2.0;
    format      ascii;
    arch        "LSB;label=32;scalar=64";
    class       volScalarField;
    location    "0.149";
    object      T;
}
// * * * * * * * * * * * * * * * * * * * * * * * * * * * * * * * * * * * * * //

dimensions      [0 0 0 1 0 0 0];

internalField   nonuniform List<scalar> 
16000
(
292.63827
284.85647
289.25319
286.96156
288.62574
287.87367
288.53919
288.33998
288.64246
288.65403
288.81897
288.90602
289.03067
289.14123
289.25989
289.37875
289.5009
289.62571
289.75358
289.88462
290.01895
290.15666
290.2978
290.4424
290.59045
290.74192
290.89673
291.05481
291.216
291.38015
291.54706
291.71651
291.88823
292.06193
292.2373
292.41399
292.59163
292.76984
292.94821
293.12632
293.30376
293.4801
293.65493
293.82782
293.99839
294.16625
294.33106
294.4925
294.65025
294.80408
294.95376
295.09911
295.23998
295.37628
295.50795
295.63496
295.75734
295.87515
295.98847
296.09747
296.20233
296.30328
296.40056
296.49445
296.58527
296.67337
296.7591
296.84287
296.92516
297.00658
297.08779
297.16939
297.25167
297.33475
297.41901
297.50316
297.60273
297.65424
297.82568
297.82909
292.32729
284.44013
288.98499
286.57967
288.3371
287.52042
288.2444
288.01904
288.34475
288.35799
288.52985
288.62626
288.75665
288.87628
289.00248
289.13001
289.26074
289.3945
289.53154
289.672
289.81597
289.96353
290.11469
290.26948
290.42784
290.58971
290.75499
290.92354
291.09519
291.26972
291.44689
291.62643
291.80802
291.99133
292.17598
292.36159
292.54773
292.73398
292.9199
293.10502
293.28891
293.47112
293.65122
293.82878
294.00342
294.17476
294.34248
294.50627
294.66587
294.82106
294.97166
295.11753
295.25857
295.39474
295.52602
295.65243
295.77403
295.89094
296.00327
296.11121
296.21498
296.31482
296.411
296.50382
296.59361
296.68073
296.76554
296.84846
296.92995
297.01062
297.09115
297.17218
297.25407
297.33686
297.42078
297.50758
297.5969
297.67606
297.79868
297.85866
292.00059
284.06104
288.69623
286.25703
288.04198
287.2285
287.95343
287.74657
288.06939
288.0997
288.27375
288.38246
288.51985
288.64952
288.78494
288.92239
289.06324
289.20743
289.35517
289.50658
289.66173
289.82066
289.98336
290.14981
290.31992
290.49358
290.67064
290.85091
291.03415
291.22011
291.40847
291.5989
291.79103
291.98444
292.17871
292.37339
292.568
292.76206
292.95509
293.1466
293.33611
293.52317
293.70733
293.88819
294.06535
294.23849
294.40729
294.57151
294.73093
294.88538
295.03475
295.17896
295.31798
295.45182
295.58053
295.70418
295.82291
295.93686
296.04621
296.15117
296.252
296.34897
296.44238
296.53254
296.6198
296.70452
296.78709
296.86791
296.94744
297.02626
297.10505
297.18448
297.26491
297.34639
297.42925
297.51486
297.60196
297.68752
297.7981
297.86599
291.70851
283.71334
288.45005
285.97051
287.79503
286.96472
287.70235
287.50593
287.8319
287.87724
288.05546
288.17689
288.32237
288.46297
288.60859
288.75693
288.90883
289.06438
289.2237
289.38691
289.55403
289.72507
289.89998
290.0787
290.2611
290.44701
290.63623
290.82851
291.02354
291.22101
291.42052
291.62167
291.82402
292.02708
292.23037
292.43336
292.63552
292.83634
293.03528
293.23183
293.42551
293.61584
293.80239
293.98478
294.16266
294.33574
294.50375
294.66651
294.82387
294.97574
295.12207
295.26286
295.39815
295.52803
295.6526
295.77201
295.88645
295.99611
296.10122
296.20203
296.29883
296.39191
296.48159
296.56821
296.65211
296.73368
296.8133
296.89136
296.96833
297.04474
297.1213
297.19865
297.27722
297.35706
297.43854
297.52252
297.60801
297.69662
297.79416
297.87746
291.44007
283.40033
288.21634
285.71211
287.59303
286.74357
287.48489
287.30779
287.63276
287.69738
287.87983
288.01564
288.17071
288.32344
288.48067
288.64112
288.80533
288.97342
289.14548
289.3216
289.50178
289.68599
289.87414
290.06611
290.26171
290.46072
290.66285
290.86777
291.07511
291.28445
291.49532
291.70722
291.91963
292.132
292.34374
292.55427
292.76303
292.96943
293.17292
293.37298
293.56912
293.76088
293.94786
294.12973
294.30619
294.477
294.642
294.80107
294.95415
295.10124
295.24237
295.37764
295.50717
295.63112
295.74968
295.86307
295.97151
296.07527
296.17462
296.26984
296.36125
296.44917
296.53393
296.61589
296.69539
296.77283
296.84858
296.92304
296.99664
297.0699
297.1435
297.21809
297.29412
297.3717
297.45106
297.53271
297.61687
297.70502
297.79664
297.88429
291.20141
283.13207
288.0194
285.49849
287.38657
286.56945
287.31678
287.15684
287.48172
287.56578
287.75349
287.9044
288.07033
288.23595
288.4058
288.57928
288.75676
288.93837
289.12419
289.31427
289.50855
289.70695
289.90933
290.11547
290.32512
290.53795
290.75358
290.97159
291.1915
291.41278
291.63486
291.85715
292.07903
292.29986
292.51899
292.73577
292.9496
293.15987
293.36601
293.56751
293.76391
293.95479
294.13982
294.31872
294.49129
294.65739
294.81694
294.96993
295.11641
295.25648
295.39029
295.518
295.63984
295.75605
295.86689
295.97265
296.07361
296.17007
296.26236
296.35079
296.43569
296.51741
296.59629
296.67268
296.74694
296.81946
296.89062
296.96079
297.03038
297.09989
297.16996
297.24124
297.31423
297.38905
297.46576
297.54473
297.62699
297.71365
297.79981
297.89129
290.99454
282.90828
287.85582
285.33225
287.23402
286.44702
287.18507
287.0589
287.37507
287.48587
287.67982
287.84614
288.02407
288.20342
288.38709
288.57485
288.76698
288.96357
289.16464
289.37015
289.57998
289.79396
290.01185
290.23333
290.45803
290.68552
290.91529
291.14679
291.37942
291.61253
291.84544
292.07745
292.30784
292.53589
292.76089
292.98217
293.19906
293.41098
293.61737
293.81777
294.01177
294.19903
294.37933
294.55247
294.71838
294.87704
295.0285
295.17287
295.31032
295.44106
295.56534
295.68345
295.79568
295.90237
296.00383
296.10042
296.19247
296.28033
296.36434
296.44485
296.5222
296.59675
296.66884
296.73883
296.80708
296.87395
296.93982
297.00506
297.07004
297.13522
297.2012
297.26863
297.33804
297.40958
297.48311
297.55897
297.6388
297.72289
297.80474
297.89737
290.81945
282.72917
287.72583
285.20244
287.10975
286.34927
287.09335
286.98166
287.32527
287.45588
287.65773
287.84054
288.03265
288.22764
288.42725
288.63142
288.8403
289.05392
289.27219
289.49501
289.72213
289.95327
290.18807
290.42608
290.66679
290.90962
291.15393
291.39901
291.64413
291.8885
292.13132
292.37179
292.60911
292.84247
293.07115
293.29445
293.51172
293.7224
293.92602
294.12218
294.31059
294.49104
294.66341
294.82769
294.98393
295.13226
295.27287
295.40602
295.532
295.65115
295.76382
295.87039
295.97126
296.0668
296.15742
296.2435
296.32543
296.40357
296.47829
296.54995
296.6189
296.6855
296.75008
296.81299
296.87459
296.93523
296.99526
297.05503
297.1149
297.17527
297.23669
297.2998
297.36518
297.43297
297.50288
297.5753
297.65222
297.73297
297.81048
297.90369
290.66849
282.59102
287.63096
285.11083
287.04448
286.34398
287.07086
287.00281
287.31645
287.47535
287.68936
287.89138
288.10099
288.31438
288.53266
288.75581
288.98391
289.21688
289.45456
289.69669
289.94293
290.19283
290.44588
290.70147
290.95891
291.21746
291.47628
291.73454
291.99133
292.24573
292.49683
292.74374
292.98558
293.22154
293.45088
293.67292
293.88711
294.09296
294.29012
294.47834
294.65748
294.8275
294.98847
295.14054
295.28394
295.41897
295.54598
295.66537
295.77756
295.883
295.98215
296.07547
296.16342
296.24644
296.32498
296.39944
296.47024
296.53777
296.6024
296.66448
296.72436
296.78239
296.8389
296.89422
296.94868
297.00261
297.05636
297.11025
297.16459
297.21976
297.27623
297.33463
297.39556
297.45917
297.52507
297.59374
297.66727
297.74397
297.8172
297.9102
290.54114
282.49563
287.57595
285.08014
287.02879
286.33222
287.05707
287.03972
287.36835
287.55542
287.785
288.0082
288.2381
288.47251
288.71212
288.95688
289.20672
289.46146
289.72076
289.98423
290.25132
290.52141
290.79378
291.06761
291.34201
291.61603
291.88867
292.15889
292.42564
292.68789
292.94463
293.1949
293.43784
293.67264
293.89862
294.11523
294.32202
294.5187
294.70508
294.88113
295.04692
295.20263
295.34853
295.48498
295.6124
295.73127
295.84209
295.9454
296.04173
296.13163
296.21565
296.2943
296.36809
296.43751
296.50302
296.56505
296.62402
296.6803
296.73428
296.78628
296.83665
296.88572
296.93378
296.98116
297.02814
297.07506
297.12222
297.16992
297.21845
297.26811
297.31934
297.37272
297.42888
297.48794
297.54952
297.61421
297.68388
297.75585
297.82482
297.91721
290.44033
282.45045
287.56406
285.14147
287.05881
286.44337
287.11944
287.17706
287.48513
287.70279
287.95208
288.19918
288.45268
288.71122
288.97521
289.24449
289.51881
289.79782
290.08098
290.36767
290.6571
290.94843
291.24066
291.53273
291.82353
292.11187
292.39655
292.67637
292.95016
293.2168
293.47524
293.72454
293.96388
294.1926
294.41015
294.61619
294.81048
294.99298
295.16378
295.3231
295.47127
295.60871
295.73594
295.85352
295.96206
296.0622
296.15458
296.23985
296.31864
296.39158
296.45924
296.52219
296.58097
296.63607
296.68796
296.73706
296.78377
296.82847
296.8715
296.91319
296.95383
296.99373
297.03317
297.07243
297.11178
297.15152
297.19192
297.23325
297.27578
297.31976
297.36555
297.4137
297.46481
297.51902
297.57606
297.63662
297.70201
297.76867
297.8334
297.92467
290.37257
282.46528
287.60093
285.23498
287.11351
286.58098
287.26008
287.35187
287.67686
287.92647
288.20016
288.47449
288.75523
289.04135
289.33304
289.62993
289.93156
290.23731
290.54636
290.8578
291.17055
291.48343
291.79517
292.10442
292.40981
292.70992
293.00339
293.28889
293.56517
293.83112
294.08574
294.32823
294.55794
294.77444
294.97747
295.16698
295.34307
295.50601
295.65621
295.7942
295.92059
296.03607
296.14136
296.23724
296.32447
296.40382
296.47603
296.54183
296.60192
296.65694
296.70751
296.75419
296.79753
296.83799
296.87602
296.91204
296.9464
296.97946
297.01153
297.04289
297.07381
297.10457
297.1354
297.16654
297.19826
297.23079
297.2644
297.29932
297.33579
297.37401
297.41427
297.45708
297.50295
297.55208
297.60443
297.66077
297.72152
297.78246
297.84303
297.93268
290.34392
282.55042
287.69866
285.41842
287.23999
286.80722
287.46157
287.61595
287.95272
288.23704
288.53999
288.84553
289.15759
289.47519
289.79818
290.12594
290.45765
290.79234
291.12883
291.46583
291.80186
292.13541
292.46486
292.78858
293.10493
293.41234
293.70932
293.99451
294.26674
294.52502
294.76857
294.99688
295.20964
295.40679
295.58849
295.75507
295.90704
296.04506
296.16987
296.28232
296.38328
296.47368
296.55444
296.62645
296.69062
296.74779
296.79876
296.8443
296.8851
296.92184
296.95509
296.98541
297.0133
297.0392
297.06353
297.08664
297.10887
297.13052
297.15185
297.17311
297.19454
297.21636
297.23877
297.26198
297.28621
297.31167
297.33858
297.36716
297.3976
297.43009
297.46485
297.50229
297.54283
297.58674
297.63435
297.68642
297.74221
297.7971
297.85376
297.94142
290.35191
282.71088
287.85588
285.65996
287.45691
287.10811
287.75126
287.96321
288.32354
288.64626
288.98416
289.3258
289.67386
290.02721
290.38528
290.74701
291.11115
291.47625
291.84065
292.20259
292.5602
292.91154
293.25468
293.58772
293.90887
294.21649
294.50915
294.78564
295.04505
295.28674
295.51038
295.71591
295.90355
296.07374
296.22713
296.36453
296.48688
296.59519
296.69056
296.77408
296.84685
296.90996
296.96446
297.01133
297.05153
297.08592
297.11532
297.14048
297.16206
297.18069
297.19692
297.21125
297.22412
297.23593
297.24703
297.25773
297.26831
297.27902
297.29008
297.30169
297.31404
297.32731
297.34165
297.35725
297.37427
297.3929
297.41334
297.43575
297.46032
297.48719
297.51656
297.54871
297.58393
297.62257
297.66543
297.71321
297.76379
297.81245
297.8656
297.95084
290.40323
282.96451
288.07591
285.99435
287.75814
287.50279
288.137
288.41268
288.80384
289.16992
289.54891
289.93214
290.32122
290.71463
291.11118
291.50925
291.90698
292.30233
292.69311
293.07702
293.45173
293.81498
294.16456
294.49848
294.81499
295.11263
295.3903
295.64724
295.88307
296.09779
296.2917
296.46539
296.61969
296.75564
296.8744
296.97725
297.0655
297.14048
297.20353
297.25593
297.29892
297.33367
297.36125
297.38269
297.39892
297.41076
297.419
297.42432
297.42733
297.42858
297.42855
297.42767
297.42632
297.42482
297.42347
297.42251
297.42217
297.42263
297.42407
297.42663
297.43047
297.43572
297.44249
297.45092
297.46114
297.4733
297.48757
297.5041
297.52302
297.54449
297.56866
297.59568
297.62569
297.65914
297.69727
297.74069
297.78594
297.8285
297.87861
297.96038
290.50215
283.33202
288.34421
286.42518
288.13646
288.00116
288.63571
288.97874
289.41124
289.82727
290.2543
290.68506
291.12004
291.5571
291.99428
292.42923
292.85936
293.28195
293.69419
294.0933
294.47659
294.84161
295.18618
295.50854
295.80734
296.08172
296.33127
296.55604
296.75649
296.93342
297.08792
297.22133
297.3351
297.43083
297.51012
297.57461
297.6259
297.6655
297.69489
297.71542
297.72836
297.73486
297.73597
297.73265
297.72576
297.71605
297.70421
297.69082
297.67641
297.66144
297.6463
297.63134
297.61686
297.60311
297.59031
297.57865
297.56827
297.55934
297.55195
297.54622
297.54224
297.5401
297.53988
297.54168
297.5456
297.55174
297.56024
297.57123
297.58482
297.60115
297.62036
297.64248
297.6675
297.69597
297.72941
297.76829
297.8082
297.8451
297.89257
297.96965
290.65235
283.82378
288.67911
286.96716
288.62598
288.6216
289.26813
289.68535
290.17003
290.64352
291.12536
291.60884
292.09318
292.57543
293.05265
293.52158
293.97881
294.4209
294.84452
295.2466
295.62447
295.97594
296.2994
296.59383
296.85884
297.0946
297.30178
297.48151
297.63523
297.76465
297.87165
297.9582
298.02632
298.07798
298.11509
298.13948
298.15287
298.15684
298.15284
298.14219
298.12609
298.1056
298.08166
298.05511
298.0267
297.99705
297.96673
297.93623
297.90595
297.87625
297.84744
297.81978
297.79347
297.76869
297.7456
297.72432
297.70494
297.68755
297.67223
297.65902
297.64799
297.63918
297.63263
297.62841
297.62657
297.62721
297.6304
297.63624
297.64487
297.65639
297.67093
297.6884
297.70876
297.73258
297.76143
297.79543
297.82993
297.86188
297.90684
297.97865
290.85849
284.39828
289.1109
287.64354
289.24841
289.39171
290.06472
290.56291
291.11034
291.64824
292.19018
292.72942
293.2636
293.78861
294.30034
294.79449
295.26688
295.71365
296.13143
296.51751
296.86995
297.1876
297.47011
297.71786
297.93187
298.11369
298.26527
298.38884
298.48682
298.56169
298.61592
298.65194
298.67206
298.67843
298.67308
298.65783
298.63434
298.60413
298.5685
298.52866
298.48563
298.44033
298.39354
298.34594
298.29814
298.25062
298.20382
298.1581
298.11376
298.07105
298.03017
297.99131
297.95458
297.92011
297.88797
297.85822
297.83092
297.80609
297.78376
297.76395
297.74667
297.73194
297.71975
297.71015
297.70315
297.69881
297.69718
297.69835
297.70241
297.70948
297.71963
297.73276
297.74881
297.76842
297.79289
297.82172
297.85054
297.87829
297.9211
297.98683
291.13749
285.12539
289.72005
288.49215
290.04137
290.34553
291.06141
291.6468
292.26595
292.87362
293.47808
294.07182
294.65049
295.20856
295.74073
296.24206
296.70828
297.13601
297.52289
297.86767
298.17011
298.43095
298.65172
298.8346
298.98224
299.09757
299.18371
299.24378
299.28087
299.29794
299.29775
299.28287
299.25565
299.21819
299.17239
299.11993
299.06228
299.00074
298.93644
298.87035
298.8033
298.736
298.66908
298.60304
298.53831
298.47525
298.41416
298.35528
298.29879
298.24486
298.19359
298.14509
298.0994
298.05658
298.01664
297.9796
297.94545
297.91419
297.88579
297.86024
297.83752
297.81761
297.80049
297.78615
297.77459
297.76584
297.75991
297.75686
297.75679
297.75978
297.76586
297.77492
297.78703
297.80287
297.82327
297.84695
297.87
297.89382
297.93469
297.99565
291.52257
286.03017
290.48569
289.55116
291.0456
291.51996
292.29827
292.9775
293.67492
294.35359
295.0163
295.65414
296.26084
296.82989
297.35583
297.83442
298.26282
298.63968
298.96504
299.24021
299.4675
299.64999
299.7913
299.89532
299.96608
300.00756
300.02359
300.01776
299.9934
299.95354
299.90089
299.83788
299.76662
299.689
299.60661
299.52087
299.43297
299.34395
299.25466
299.16585
299.07813
298.99201
298.90792
298.8262
298.74713
298.67093
298.59777
298.52779
298.46108
298.3977
298.33769
298.28107
298.22783
298.17796
298.13143
298.08822
298.04826
298.01152
297.97795
297.9475
297.92011
297.89575
297.87436
297.85592
297.84039
297.82777
297.81805
297.81127
297.8075
297.8068
297.80914
297.81444
297.82292
297.83531
297.85196
297.87086
297.88861
297.90885
297.94778
298.00453
292.05584
287.17872
291.4199
290.85775
292.31219
292.96505
293.82604
294.6032
295.37716
296.11629
296.81809
297.47286
298.07391
298.61577
299.09507
299.51048
299.86257
300.15353
300.38687
300.56698
300.69882
300.78762
300.8386
300.85682
300.84704
300.81366
300.76063
300.69152
300.60943
300.51712
300.41695
300.31098
300.20093
300.08831
299.97437
299.86017
299.74659
299.63438
299.52413
299.41635
299.31143
299.2097
299.11141
299.01675
298.92586
298.83884
298.75576
298.67665
298.60152
298.53036
298.46314
298.39981
298.34033
298.28463
298.23263
298.18427
298.13947
298.09815
298.06023
298.02564
297.99431
297.96616
297.94113
297.91917
297.90022
297.88425
297.87124
297.8612
297.85417
297.85016
297.8491
297.85098
297.85615
297.86529
297.87836
297.89296
297.90639
297.92378
297.96054
298.01161
292.77546
288.62986
292.63378
292.48018
293.91725
294.75015
295.70275
296.56756
297.39609
298.16194
298.85998
299.48242
300.02563
300.48839
300.87224
301.18085
301.4195
301.59452
301.71281
301.78137
301.80705
301.7963
301.75503
301.68857
301.60164
301.49837
301.38232
301.25656
301.12368
300.9859
300.84507
300.70273
300.56017
300.41846
300.27847
300.14092
300.00638
299.87531
299.74809
299.62499
299.50621
299.39192
299.28221
299.17716
299.07678
298.98107
298.89001
298.80356
298.72165
298.64421
298.57115
298.5024
298.43784
298.37738
298.32091
298.26833
298.21954
298.17443
298.13291
298.09487
298.06022
298.02889
298.00078
297.97583
297.95396
297.93512
297.91928
297.90641
297.89653
297.88959
297.88552
297.88435
297.88651
297.89255
297.90206
297.91269
297.92274
297.93816
297.97217
298.01621
293.68699
290.49791
294.21022
294.50792
295.94535
296.94253
297.96539
298.87674
299.70546
300.43375
301.05986
301.58257
302.00536
302.33421
302.57722
302.7436
302.843
302.88494
302.87842
302.83166
302.75204
302.64599
302.51909
302.37608
302.221
302.0572
301.88749
301.7142
301.53926
301.36421
301.19036
301.01872
300.85014
300.68528
300.52466
300.36869
300.21766
300.0718
299.93127
299.79618
299.66656
299.54244
299.42381
299.31061
299.20279
299.10025
299.00292
298.91067
298.8234
298.74098
298.66329
298.5902
298.52157
298.45728
298.3972
298.3412
298.28915
298.24094
298.19644
298.15554
298.11815
298.08415
298.05345
298.02596
298.00161
297.98032
297.96205
297.94675
297.93439
297.9249
297.9182
297.91437
297.91384
297.91696
297.923
297.92985
297.93698
297.95074
297.98156
298.0182
294.91046
292.9026
296.26102
297.01111
298.43059
299.56478
300.58857
301.46123
302.20069
302.8026
303.27552
303.62882
303.87524
304.02836
304.10195
304.10906
304.06163
303.97021
303.84393
303.69058
303.51665
303.32756
303.12775
302.92087
302.70985
302.4971
302.28452
302.07366
301.86573
301.66169
301.4623
301.26813
301.07961
300.89706
300.72071
300.55071
300.38715
300.23005
300.07941
299.93519
299.79732
299.66571
299.54024
299.42081
299.30726
299.19946
299.09727
299.00052
298.90907
298.82275
298.7414
298.66488
298.59302
298.52568
298.4627
298.40393
298.34924
298.29849
298.25154
298.20828
298.16859
298.13236
298.09947
298.06984
298.04337
298.01999
297.99962
297.98223
297.96773
297.95602
297.94705
297.94094
297.93804
297.93847
297.94129
297.94471
297.9491
297.96084
297.9882
298.01929
296.47981
295.94589
298.80995
300.00687
301.47988
302.53534
303.44385
304.15537
304.6982
305.08353
305.33309
305.46707
305.50572
305.46728
305.36777
305.22082
305.03777
304.82789
304.59872
304.35629
304.10541
303.84989
303.59274
303.3363
303.08241
302.83249
302.58764
302.34868
302.11622
301.89071
301.67247
301.46169
301.25851
301.06297
300.87507
300.69476
300.52196
300.35657
300.19846
300.04748
299.90347
299.76626
299.63567
299.51153
299.39365
299.28185
299.17593
299.07572
298.98102
298.89166
298.80745
298.72822
298.6538
298.58401
298.51869
298.45768
298.40083
298.348
298.29903
298.25381
298.2122
298.17408
298.13934
298.10787
298.07959
298.05439
298.03221
298.01298
297.99661
297.98299
297.97208
297.964
297.95901
297.95701
297.95701
297.9577
297.96003
297.96975
297.9926
298.01605
298.44484
299.63796
302.26827
303.52459
304.75233
305.63051
306.29025
306.72326
306.97864
307.08589
307.07722
306.97869
306.81237
306.59592
306.34342
306.06583
305.77169
305.46754
305.15841
304.84811
304.53956
304.23491
303.93582
303.64347
303.35875
303.08226
302.81444
302.55554
302.30572
302.06503
301.83347
301.61096
301.3974
301.19265
300.99653
300.80887
300.62946
300.4581
300.29458
300.13866
299.99015
299.8488
299.71441
299.58674
299.46558
299.35072
299.24194
299.13904
299.0418
298.95004
298.86355
298.78215
298.70564
298.63386
298.56662
298.50376
298.44512
298.39054
298.33988
298.29299
298.24974
298.21
298.17366
298.1406
298.11072
298.08393
298.06015
298.03929
298.02125
298.00595
297.99335
297.98356
297.97671
297.97255
297.97022
297.96886
297.96969
297.97731
297.9953
298.01274
301.12805
304.0355
306.00053
307.15509
308.06139
308.57275
308.84695
308.91873
308.84658
308.6685
308.41604
308.1123
307.77468
307.41592
307.04541
306.66996
306.29454
305.92272
305.55707
305.19939
304.85096
304.51263
304.18494
303.86821
303.56261
303.26816
302.9848
302.71242
302.45083
302.19983
301.95918
301.72862
301.50789
301.29672
301.09484
300.90197
300.71783
300.54216
300.37467
300.21512
300.06322
299.91874
299.78141
299.65099
299.52725
299.40994
299.29884
299.19373
299.0944
299.00062
298.9122
298.82894
298.75065
298.67714
298.60822
298.54374
298.48352
298.42739
298.37521
298.32684
298.28213
298.24094
298.20316
298.16867
298.13736
298.10912
298.08388
298.06154
298.042
298.02517
298.01105
297.9997
297.99112
297.98505
297.98084
297.97807
297.97791
297.98349
297.99644
298.00842
304.86274
308.69626
309.92623
310.60719
310.95498
310.98725
310.83552
310.55432
310.19245
309.78033
309.33958
308.88466
308.42546
307.96863
307.51867
307.07854
306.65016
306.23474
305.83298
305.44523
305.07159
304.71201
304.36629
304.03418
303.71538
303.40952
303.11625
302.83519
302.56596
302.30819
302.06149
301.82551
301.59989
301.38427
301.17831
300.98169
300.79408
300.61517
300.44467
300.28227
300.12769
299.98067
299.84092
299.7082
299.58224
299.46282
299.34968
299.24261
299.14137
299.04576
298.95556
298.87057
298.7906
298.71546
298.64496
298.57893
298.5172
298.45961
298.40599
298.35621
298.31011
298.26756
298.22844
298.19262
298.15998
298.13042
298.10385
298.08016
298.05925
298.04106
298.02556
298.01275
298.00259
297.99483
297.98907
297.98519
297.98401
297.98728
297.99558
298.00383
310.43021
312.85099
313.28644
313.24791
313.02499
312.61478
312.11892
311.5756
311.01297
310.44695
309.88736
309.34006
308.80846
308.29445
307.79895
307.32228
306.86436
306.42488
306.00338
305.59933
305.21212
304.84117
304.48585
304.14558
303.81977
303.50785
303.2093
302.92359
302.65024
302.38877
302.13874
301.89971
301.67128
301.45306
301.24467
301.04576
300.85598
300.675
300.5025
300.33819
300.18176
300.03293
299.89143
299.75699
299.62936
299.50829
299.39355
299.28489
299.1821
299.08496
298.99326
298.90679
298.82537
298.7488
298.67689
298.60948
298.54639
298.48746
298.43253
298.38145
298.33408
298.29028
298.24992
298.21287
298.17902
298.14826
298.12049
298.0956
298.0735
298.05411
298.0374
298.02333
298.01179
298.00262
297.99562
297.99079
297.98859
297.98979
297.99445
298.00009
314.03512
315.02881
315.18041
314.67769
314.05639
313.38213
312.69533
312.01654
311.35538
310.71705
310.10367
309.51596
308.95372
308.41633
307.90287
307.41236
306.94375
306.49598
306.06807
305.65905
305.268
304.89407
304.53646
304.19442
303.86725
303.55429
303.25492
302.96857
302.6947
302.4328
302.18239
301.94302
301.71426
301.4957
301.28696
301.08767
300.89747
300.71605
300.54307
300.37822
300.22122
300.07177
299.92961
299.79447
299.6661
299.54425
299.42868
299.31916
299.21548
299.11741
299.02475
298.9373
298.85487
298.77727
298.70431
298.63583
298.57165
298.51162
298.45557
298.40337
298.35486
298.30992
298.26841
298.23021
298.19521
298.1633
298.13437
298.10834
298.0851
298.06461
298.04678
298.03155
298.01882
298.00849
298.00047
297.99479
297.99164
297.9913
297.99375
297.99795
310.54136
308.8167
305.56116
302.74946
301.76074
301.78075
301.44317
301.22343
301.04784
300.89696
300.76675
300.64023
300.52713
300.42322
300.32283
300.22261
300.12382
300.02625
299.92959
299.83369
299.73844
299.64377
299.54965
299.4561
299.36313
299.27077
299.17908
299.08811
298.99793
298.90862
298.82024
298.73289
298.64665
298.56161
298.47786
298.39552
298.31467
298.23543
298.15791
298.08222
298.00847
297.9368
297.86731
297.80015
297.73544
297.67331
297.6139
297.55734
297.50377
297.45333
297.40614
297.36233
297.32203
297.28536
297.25243
297.22334
297.19817
297.177
297.15987
297.14683
297.13797
297.13334
297.13299
297.13699
297.14544
297.15836
297.17594
297.19785
297.22497
297.25557
297.29401
297.33252
297.38695
297.42889
297.50722
297.53977
297.65722
297.67401
297.82376
297.86131
306.72498
304.58375
300.53825
299.32082
299.30945
299.42567
299.5858
299.63838
299.67745
299.71094
299.73395
299.73372
299.71771
299.68882
299.65237
299.60991
299.56209
299.50938
299.45242
299.39181
299.32805
299.26158
299.1928
299.12205
299.04968
298.97597
298.9012
298.82563
298.74951
298.67306
298.5965
298.52003
298.44385
298.36814
298.2931
298.21889
298.14568
298.07365
298.00295
297.93376
297.86622
297.80049
297.73674
297.67512
297.61578
297.55889
297.5046
297.45305
297.40439
297.35878
297.31634
297.27722
297.24154
297.20942
297.18097
297.15629
297.13545
297.11853
297.10555
297.09655
297.09162
297.0908
297.09414
297.10168
297.11351
297.12966
297.15028
297.17509
297.20482
297.23807
297.27856
297.31969
297.37534
297.42
297.49836
297.53424
297.65125
297.66921
297.82419
297.85315
307.26076
303.14257
300.06893
298.90237
298.93113
299.0466
299.17163
299.19385
299.22769
299.22733
299.22854
299.2181
299.20651
299.18874
299.16678
299.13965
299.10814
299.07242
299.03282
298.98965
298.94318
298.89368
298.84144
298.78672
298.7298
298.67094
298.61039
298.54841
298.48525
298.42114
298.35631
298.29099
298.2254
298.15976
298.09427
298.02913
297.96457
297.90076
297.83791
297.7762
297.71583
297.65698
297.59983
297.54457
297.49138
297.44043
297.3919
297.34596
297.30276
297.26246
297.22522
297.19117
297.16045
297.13318
297.10947
297.08942
297.0731
297.06057
297.05185
297.04699
297.04605
297.04908
297.05612
297.06719
297.08239
297.10173
297.12534
297.15298
297.1853
297.22105
297.26367
297.30714
297.3643
297.41105
297.4903
297.52848
297.64623
297.66467
297.82344
297.84701
306.17948
301.01321
299.05491
298.17349
298.42273
298.48045
298.60624
298.61664
298.66527
298.67847
298.70033
298.70471
298.70665
298.7003
298.68999
298.67487
298.65581
298.63281
298.60621
298.57629
298.54325
298.50733
298.46873
298.42766
298.38433
298.33893
298.29166
298.24271
298.1923
298.14061
298.08786
298.03424
297.97997
297.92525
297.87029
297.8153
297.76049
297.70606
297.65223
297.5992
297.54718
297.49636
297.44696
297.39917
297.3532
297.30923
297.26747
297.22808
297.19124
297.15713
297.1259
297.09769
297.07266
297.05092
297.0326
297.01777
297.00652
296.9989
296.99492
296.99463
296.99808
297.00532
297.01638
297.03129
297.05011
297.07287
297.09967
297.1303
297.16537
297.20374
297.24863
297.29446
297.3533
297.40207
297.48235
297.52272
297.64115
297.6602
297.8225
297.84106
305.15731
299.91008
298.4866
297.76191
298.11906
298.10361
298.23642
298.21856
298.2666
298.26354
298.27865
298.27522
298.27488
298.26802
298.25964
298.2479
298.23371
298.21688
298.19759
298.17595
298.15203
298.1259
298.09765
298.06736
298.03512
298.00104
297.96523
297.92782
297.88893
297.84872
297.80733
297.76493
297.72169
297.67778
297.6334
297.58872
297.54395
297.49928
297.45492
297.41108
297.36796
297.32576
297.28472
297.24503
297.2069
297.17054
297.13614
297.10391
297.07402
297.04665
297.02196
297.00011
296.98124
296.96549
296.95296
296.94374
296.93792
296.93553
296.93658
296.94111
296.94919
296.96085
296.97611
296.995
297.01757
297.04385
297.07393
297.10762
297.14549
297.18649
297.23372
297.28187
297.3425
297.39316
297.47468
297.5169
297.63631
297.65589
297.82108
297.83573
304.64779
298.84053
297.8577
297.21474
297.66995
297.59042
297.75125
297.71976
297.78334
297.78097
297.80626
297.80846
297.81595
297.81593
297.81506
297.81093
297.80474
297.79618
297.7855
297.77275
297.75802
297.74137
297.72286
297.70257
297.68054
297.65687
297.63162
297.60488
297.57675
297.54733
297.51673
297.48509
297.45253
297.41921
297.38527
297.35089
297.31624
297.28149
297.24685
297.2125
297.17865
297.1455
297.11327
297.08217
297.0524
297.02418
296.9977
296.97316
296.95075
296.93064
296.91301
296.89801
296.88579
296.87647
296.87016
296.86697
296.86694
296.87013
296.87653
296.88618
296.89915
296.91545
296.93511
296.95816
296.98464
297.01457
297.04803
297.08487
297.12561
297.16931
297.21891
297.26937
297.33188
297.38442
297.46721
297.51117
297.63159
297.65174
297.81933
297.83098
304.17271
297.69749
297.29532
296.68466
297.21453
297.08708
297.28052
297.23761
297.31742
297.31481
297.34848
297.35483
297.36912
297.37528
297.3813
297.38407
297.38499
297.3838
297.38075
297.37589
297.36931
297.36107
297.35125
297.33988
297.32702
297.31272
297.29703
297.28002
297.26175
297.2423
297.22174
297.20019
297.17774
297.15451
297.13063
297.10625
297.0815
297.05655
297.03158
297.00677
296.9823
296.95837
296.93519
296.91294
296.89185
296.8721
296.8539
296.83743
296.82289
296.81044
296.80026
296.7925
296.78729
296.78478
296.78505
296.78819
296.79427
296.80332
296.81533
296.83033
296.84839
296.86953