/*--------------------------------*- C++ -*----------------------------------*\
| =========                 |                                                 |
| \\      /  F ield         | OpenFOAM: The Open Source CFD Toolbox           |
|  \\    /   O peration     | Version:  2512                                  |
|   \\  /    A nd           | Website:  www.openfoam.com                      |
|    \\/     M anipulation  |                                                 |
\*---------------------------------------------------------------------------*/
FoamFile
{
    version     2.0;
    format      ascii;
    arch        "LSB;label=32;scalar=64";
    class       volVectorField;
    location    "0.149";
    object      U;
}
// * * * * * * * * * * * * * * * * * * * * * * * * * * * * * * * * * * * * * //

dimensions      [0 1 -1 0 0 0 0];

internalField   nonuniform List<vector> 
16000
(
(214.72946 -3.1196239e-17 -8.3348418)
(251.8534 0 5.3483149)
(238.26922 0 -7.5366123)
(245.96403 4.9560484e-17 3.7585898)
(241.37011 -4.9011344e-17 -5.9278551)
(243.62637 0 1.7337431)
(241.87471 0 -4.3107164)
(242.41396 8.3857244e-17 -0.040851194)
(241.60524 -7.9698014e-17 -3.1534821)
(241.50723 0 -1.2744471)
(241.01406 7.2016104e-17 -2.5655293)
(240.68501 -2.0517297e-16 -1.9886728)
(240.25743 1.298687e-16 -2.4262551)
(239.843 -1.2353723e-16 -2.364035)
(239.39891 1.1721546e-16 -2.5252102)
(238.93965 -3.4771731e-18 -2.5972795)
(238.46057 -3.3032213e-18 -2.7008863)
(237.96275 -9.7471953e-17 -2.793751)
(237.44574 1.9096993e-16 -2.8883964)
(236.90948 -9.0608289e-17 -2.9808417)
(236.35389 1.7235031e-16 -3.0714729)
(235.77896 -1.6337365e-16 -3.1595893)
(235.18474 0 -3.2446885)
(234.57136 1.5207567e-16 -3.3261831)
(233.93905 -4.1153873e-18 -3.4034762)
(233.28812 -2.6541806e-16 -3.4759372)
(232.61902 1.2579828e-16 -3.5429277)
(231.93229 0 -3.6037944)
(231.22862 0 -3.657886)
(230.50881 2.1846924e-16 -3.7045578)
(229.77381 -2.0355283e-16 -3.743185)
(229.02471 0 -3.7731715)
(228.26271 0 -3.7939611)
(227.48918 0 -3.8050515)
(226.7056 5.1355068e-18 -3.8060047)
(225.91357 1.558477e-16 -3.7964592)
(225.11482 -1.4266375e-16 -3.776142)
(224.31115 -1.3972962e-16 -3.744877)
(223.50447 1.2372046e-16 -3.702595)
(222.69672 0 -3.6493421)
(221.88989 -1.1841289e-16 -3.585281)
(221.08601 1.1176764e-16 -3.5106965)
(220.28706 -2.1182295e-16 -3.4259925)
(219.49502 1.9984833e-16 -3.3316893)
(218.7118 -1.9518395e-16 -3.2284167)
(217.93923 3.5735073e-16 -3.1169037)
(217.17903 5.6002028e-18 -2.9979671)
(216.43281 2.9820323e-19 -2.8724969)
(215.70204 -1.5041549e-16 -2.7414395)
(214.98803 1.4226165e-16 -2.6057808)
(214.29194 -1.2566097e-16 -2.4665279)
(213.61474 0 -2.3246902)
(212.95724 7.4688337e-18 -2.1812624)
(212.32006 0 -2.0372069)
(211.70364 6.646447e-18 -1.8934391)
(211.10822 2.0695715e-16 -1.7508151)
(210.53387 -3.7827043e-16 -1.6101196)
(209.98045 1.0922338e-17 -1.4720563)
(209.44768 1.6809497e-16 -1.3372374)
(208.93502 -1.487904e-16 -1.2061909)
(208.44179 1.4015307e-16 -1.0793359)
(207.96718 -8.8193242e-18 -0.95702833)
(207.51029 0 -0.83952667)
(207.06998 0 -0.7269919)
(206.64485 -1.1114519e-16 -0.61951654)
(206.23318 1.1182548e-16 -0.51712796)
(205.83298 -9.9090552e-17 -0.41980816)
(205.44206 1.9342336e-16 -0.32750655)
(205.05825 -1.8876921e-16 -0.24014627)
(204.6794 8.3686228e-17 -0.15762002)
(204.30324 5.2847199e-18 -0.0797952)
(203.92714 0 -0.0065876082)
(203.54827 4.7515876e-18 0.062048338)
(203.16458 -4.5135263e-18 0.12643104)
(202.7755 0 0.18694328)
(202.38281 -3.3755113e-17 0.23999711)
(201.95262 6.2476159e-17 0.28439319)
(201.65084 -3.174757e-17 0.3946794)
(200.93479 0 0.19141579)
(200.99704 0 0.88154875)
(216.01951 0 -11.144631)
(253.46613 -3.7091678e-18 3.3045814)
(239.17639 -1.1965126e-16 -10.458263)
(247.4049 1.1011092e-16 1.6773432)
(242.45961 0 -8.7847059)
(244.94506 1.0140759e-16 -0.4219909)
(242.99069 -1.8742647e-16 -7.0525028)
(243.61679 -1.0212789e-19 -2.3201766)
(242.7175 8.4464747e-17 -5.7419997)
(242.61974 0 -3.6717991)
(242.08566 -1.5257825e-16 -5.040815)
(241.72738 1.4924962e-16 -4.4317753)
(241.26757 1.4195834e-16 -4.8563025)
(240.8185 -2.6133014e-16 -4.7951132)
(240.33965 1.2013755e-16 -4.9366542)
(239.84373 1.1045115e-17 -5.0017781)
(239.32701 1.1549818e-16 -5.0902258)
(238.79025 -1.0286489e-16 -5.1697748)
(238.23315 0 -5.2487779)
(237.65569 0 -5.3245318)
(237.05787 5.6764548e-18 -5.3969158)
(236.43978 -1.7807217e-16 -5.465219)
(235.80156 3.3765804e-16 -5.5288043)
(235.1435 -3.1551619e-16 -5.5869846)
(234.46595 1.4260974e-16 -5.6390568)
(233.7694 0 -5.6843026)
(233.05447 1.2438183e-16 -5.721993)
(232.3219 -1.3337392e-16 -5.7514036)
(231.57257 0 -5.7718212)
(230.80753 3.5249154e-18 -5.7825558)
(230.02795 -1.3369413e-17 -5.7829515)
(229.23515 0 -5.7724024)
(228.4306 0 -5.7503606)
(227.61591 -1.7059285e-16 -5.7163566)
(226.79282 3.387382e-16 -5.6700085)
(225.96317 -1.6265835e-16 -5.6110359)
(225.12892 -1.590648e-16 -5.539274)
(224.29208 1.4558438e-16 -5.4546805)
(223.45477 -1.1213389e-16 -5.3573463)
(222.61908 -2.8705572e-19 -5.2475007)
(221.78715 -2.6851373e-19 -5.1255134)
(220.96109 2.3274959e-16 -4.9918945)
(220.14295 -1.0981439e-16 -4.8472895)
(219.33472 0 -4.6924714)
(218.53829 2.0234473e-16 -4.5283309)
(217.75541 1.193694e-17 -4.355861)
(216.98773 -5.1158176e-18 -4.1761405)
(216.23669 -1.6451562e-16 -3.9903153)
(215.50359 0 -3.7995777)
(214.78956 -1.4653998e-16 -3.6051454)
(214.09551 -8.8584806e-18 -3.4082406)
(213.42219 2.6008945e-16 -3.2100683)
(212.77016 -1.3007773e-16 -3.0117977)
(212.1398 0 -2.8145438)
(211.5313 -2.0381669e-17 -2.6193518)
(210.94467 -2.1119795e-16 -2.4271855)
(210.37975 3.612589e-16 -2.2389154)
(209.8362 -2.1526752e-16 -2.0553106)
(209.31354 0 -1.8770303)
(208.81109 -1.7079486e-16 -1.7046311)
(208.328 1.7948098e-16 -1.5385445)
(207.86333 2.6685916e-17 -1.379113)
(207.41606 0 -1.2265839)
(206.985 -1.4189126e-16 -1.0810854)
(206.56872 7.320938e-18 -0.94266794)
(206.16547 1.1171078e-16 -0.81130911)
(205.77325 -1.9737262e-17 -0.68693397)
(205.38984 9.3003895e-17 -0.56943179)
(205.013 -1.0512743e-16 -0.45866386)
(204.64053 5.5088192e-18 -0.35446258)
(204.27016 -5.1979785e-18 -0.25664864)
(203.89924 0 -0.16510456)
(203.52489 -4.6380394e-18 -0.079683499)
(203.14506 4.38695e-18 0.00013215435)
(202.75857 8.3086952e-18 0.073892775)
(202.36224 9.8451886e-19 0.13795199)
(201.96046 0 0.2061697)
(201.58168 3.0230226e-17 0.28650714)
(201.01468 -5.7569806e-17 0.16097095)
(200.89997 2.586065e-17 0.76584849)
(217.17247 0 -14.027459)
(254.92756 -1.2200144e-16 1.0647302)
(240.12022 2.497082e-16 -13.466546)
(248.6372 -2.2260149e-16 -0.57685483)
(243.43715 1.1014737e-16 -11.721046)
(246.05797 -3.2584416e-18 -2.7712369)
(243.97636 9.9263362e-17 -9.8457656)
(244.62747 -9.39783e-17 -4.7982046)
(243.6712 -5.5809208e-18 -8.3980576)
(243.54997 -5.2985991e-18 -6.2363901)
(242.98022 -1.0066714e-17 -7.6171991)
(242.58564 1.3888347e-16 -7.0134594)
(242.09004 -1.4078437e-16 -7.4073114)
(241.60215 1.3817524e-16 -7.3531669)
(241.08387 -1.1870255e-16 -7.4736603)
(240.54687 -1.5558032e-17 -7.5309412)
(239.98783 0 -7.6040054)
(239.40747 -1.1936882e-20 -7.6689157)
(238.80559 -2.2629424e-16 -7.7310386)
(238.18229 -3.6760361e-19 -7.788345)
(237.53766 1.7344903e-16 -7.8404011)
(236.87192 1.7037807e-17 -7.8864147)
(236.18537 -2.1550354e-17 -7.9256307)
(235.47844 0 -7.9572589)
(234.75168 6.7014072e-21 -7.9805003)
(234.00577 -1.6543184e-16 -7.9945488)
(233.24153 1.4779288e-16 -7.9986031)
(232.45997 8.2484849e-18 -7.9918741)
(231.6622 0 -7.9736038)
(230.84955 -7.39995e-18 -7.9430725)
(230.02346 -2.1882095e-21 -7.8996191)
(229.18557 -1.9920024e-16 -7.8426544)
(228.33764 2.0061773e-16 -7.7716762)
(227.48157 1.188904e-17 -7.6862904)
(226.6194 -1.7996615e-16 -7.5862191)
(225.75325 1.4852419e-16 -7.4713201)
(224.88534 -1.8097984e-16 -7.3415962)
(224.01792 1.5169146e-16 -7.1972052)
(223.15329 -1.436288e-16 -7.0384642)
(222.29371 1.3536345e-16 -6.8658549)
(221.44144 1.6006007e-17 -6.6800208)
(220.59864 0 -6.4817601)
(219.7674 1.996566e-16 -6.2720181)
(218.94967 -2.4166499e-16 -6.0518724)
(218.14723 0 -5.8225158)
(217.36174 1.7936499e-16 -5.5852385)
(216.59462 -1.5739637e-16 -5.3414023)
(215.84714 1.6982573e-16 -5.0924199)
(215.12034 -1.7963071e-16 -4.8397286)
(214.41505 0 -4.5847671)
(213.73192 1.7713315e-16 -4.3289523)
(213.07137 -1.3312212e-16 -4.0736554)
(212.43368 0 -3.8201837)
(211.81889 0 -3.5697634)
(211.22692 1.2473384e-16 -3.3235232)
(210.65749 -2.0831451e-16 -3.0824865)
(210.11018 1.2228548e-16 -2.8475602)
(209.58442 1.8403678e-16 -2.6195302)
(209.0795 1.9871187e-19 -2.3990547)
(208.59457 1.7682174e-19 -2.1866724)
(208.1286 -3.23942e-16 -1.9827902)
(207.68051 8.9401349e-17 -1.7877004)
(207.24918 0 -1.6016054)
(206.83331 1.4209333e-16 -1.4245772)
(206.43144 -1.6299574e-16 -1.2566001)
(206.04183 1.1140874e-16 -1.097583)
(205.66247 1.3150086e-17 -0.94737823)
(205.29111 -8.5967443e-17 -0.80580377)
(204.92551 1.1544527e-17 -0.67265318)
(204.56345 2.1710781e-17 -0.54770032)
(204.20267 -1.0209896e-16 -0.43072151)
(203.84057 9.6023766e-17 -0.32154217)
(203.47432 -7.2350838e-17 -0.21990837)
(203.10164 1.3628589e-16 -0.12539799)
(202.72072 -5.6199008e-17 -0.038980544)
(202.33022 -6.0635992e-17 0.038342291)
(201.93842 5.0098396e-17 0.12019669)
(201.53274 0 0.18516679)
(201.04273 3.2060378e-18 0.13096521)
(200.82673 -1.2159572e-17 0.64482448)
(218.15918 0 -16.97889)
(256.23278 0 -1.3087375)
(240.85498 0 -16.604766)
(249.66954 1.0637782e-16 -2.9350235)
(244.22376 -1.2375628e-16 -14.785335)
(246.99832 -2.2020049e-16 -5.2378639)
(244.7754 2.0960474e-16 -12.756347)
(245.45444 -1.2410803e-17 -7.4029842)
(244.43386 5.9113535e-18 -11.164274)
(244.28544 -1.7382305e-16 -8.9321373)
(243.67569 1.701897e-16 -10.304707)
(243.23954 1.0114262e-17 -9.7203682)
(242.70354 -1.5359628e-16 -10.075492)
(242.17177 1.3644583e-16 -10.029944)
(241.60925 -1.3193609e-20 -10.127984)
(241.02633 -8.1841568e-18 -10.175345)
(240.42026 0 -10.231283)
(239.79171 -7.3873158e-18 -10.278983)
(239.14061 -2.1029239e-16 -10.321476)
(238.46716 2.1233741e-16 -10.357194)
(237.77159 1.2603806e-17 -10.385479)
(237.05426 -1.1949529e-17 -10.405454)
(236.31563 2.1533899e-16 -10.416262)
(235.55633 -1.715272e-16 -10.417016)
(234.77713 1.0171774e-17 -10.40682)
(233.97895 1.9287889e-16 -10.384786)
(233.16289 -1.2758763e-16 -10.350038)
(232.33024 0 -10.301737)
(231.48245 1.4742853e-16 -10.239088)
(230.62116 -1.237466e-16 -10.161369)
(229.74817 2.4939785e-16 -10.067939)
(228.86547 -1.3318369e-17 -9.9582655)
(227.97517 -2.0948686e-16 -9.8319392)
(227.07951 1.7375512e-16 -9.6886932)
(226.18085 -1.8717518e-16 -9.5284159)
(225.28161 -3.1447896e-20 -9.3511683)
(224.38427 2.0924884e-16 -9.1571908)
(223.49131 -3.1578996e-16 -8.9469097)
(222.60518 9.2941281e-17 -8.7209396)
(221.72828 3.5189921e-17 -8.4800793)
(220.86292 -4.975886e-17 -8.2253062)
(220.01125 0 -7.9577607)
(219.1753 -8.8540821e-17 -7.6787319)
(218.3569 1.3866902e-16 -7.3896346)
(217.55767 -2.0938206e-16 -7.0919871)
(216.779 1.9673504e-16 -6.7873861)
(216.02209 -2.0866998e-16 -6.4774759)
(215.28787 3.9237354e-16 -6.1639227)
(214.57704 -3.0749519e-16 -5.8483875)
(213.89011 3.0835076e-16 -5.532498)
(213.22734 -1.4472907e-16 -5.2178261)
(212.5888 1.3623863e-16 -4.9058656)
(211.97439 -9.5773305e-17 -4.5980124)
(211.38382 3.0032683e-17 -4.2955527)
(210.81668 0 -3.9996472)
(210.27239 0 -3.7113268)
(209.75026 0 -3.4314855)
(209.24947 2.3247843e-17 -3.1608787)
(208.76908 0 -2.9001208)
(208.30807 -1.6362872e-16 -2.6496935)
(207.86526 1.9155451e-16 -2.4099432)
(207.43943 -1.0781919e-16 -2.1810867)
(207.02934 -1.1713591e-19 -1.9632512)
(206.63364 2.5225513e-16 -1.7564341)
(206.25084 2.962768e-17 -1.5605383)
(205.8792 -1.3835797e-16 -1.375392)
(205.51673 5.1886565e-17 -1.200767)
(205.16122 -1.4576752e-16 -1.0364034)
(204.81039 -4.5548283e-17 -0.88202479)
(204.46203 -6.4028325e-17 -0.73734798)
(204.11392 -6.0043604e-17 -0.60210008)
(203.76354 5.6268304e-17 -0.47603943)
(203.4081 0 -0.35886717)
(203.04499 0 -0.25035282)
(202.67231 -1.5510232e-17 -0.15133843)
(202.29081 0 -0.060703249)
(201.90479 6.8516249e-18 0.029904083)
(201.49297 5.1596194e-17 0.092005243)
(201.05024 -7.2873812e-17 0.094975474)
(200.76795 -1.4821139e-20 0.52074457)
(218.96139 0 -20.127276)
(257.36197 -8.7784214e-18 -3.754785)
(241.44814 2.6644772e-16 -19.875446)
(250.51014 -2.4842706e-16 -5.4182839)
(244.77384 2.5400586e-16 -17.962729)
(247.73207 -2.3216517e-16 -7.8570534)
(245.37085 -2.2149542e-16 -15.77158)
(246.06733 2.0960288e-16 -10.164874)
(244.984 0 -14.032786)
(244.79875 0 -11.776874)
(244.14706 1.7969768e-16 -13.105545)
(243.66284 -1.7024061e-16 -12.558895)
(243.08197 -1.0113609e-17 -12.865403)
(242.50142 2.8768119e-17 -12.827608)
(241.88996 -9.1038161e-18 -12.901034)
(241.25649 3.4530058e-17 -12.934714)
(240.5988 0 -12.970619)
(239.91748 0 -12.997449)
(239.21261 -2.3582461e-16 -13.016623)
(238.48449 2.0914248e-16 -13.026792)
(237.7335 0 -13.027102)
(236.9602 0 -13.016561)
(236.16528 -1.9029483e-16 -12.994168)
(235.34963 3.6013001e-16 -12.958917)
(234.51431 -1.7032857e-16 -12.909798)
(233.66058 -2.0178348e-17 -12.845829)
(232.78989 -3.8218931e-17 -12.766065)
(231.90392 -1.4481755e-16 -12.669629)
(231.00453 1.1956789e-16 -12.555722)
(230.09377 0 -12.423653)
(229.17386 -3.0624992e-17 -12.272858)
(228.2472 0 -12.102924)
(227.3163 0 -11.913605)
(226.38379 2.0673553e-16 -11.704845)
(225.45235 -2.1912222e-16 -11.476783)
(224.52471 2.298535e-17 -11.229773)
(223.60358 -2.1688128e-17 -10.964384)
(222.69163 -4.1005722e-17 -10.6814)
(221.79143 -8.8248489e-20 -10.381815)
(220.9054 8.3742032e-20 -10.066821)
(220.03583 -7.8953001e-20 -9.7377964)
(219.18479 0 -9.3962743)
(218.3541 -1.2172774e-16 -9.0439289)
(217.54537 1.1430817e-16 -8.6825375)
(216.75994 0 -8.3139532)
(215.99885 -5.0667125e-17 -7.940076)
(215.26292 1.9042953e-16 -7.5628138)
(214.55267 -2.2323849e-16 -7.1840572)
(213.8684 -2.1002978e-16 -6.8056483)
(213.21015 1.5746876e-16 -6.4293547)
(212.57778 1.1106224e-16 -6.0568467)
(211.97094 -1.3863277e-16 -5.689679)
(211.38912 -3.2502375e-17 -5.3292735)
(210.83167 -2.1352806e-16 -4.9769117)
(210.29783 1.1420411e-16 -4.6337232)
(209.7867 -1.0711331e-16 -4.3006861)
(209.29732 1.0018956e-16 -3.9786252)
(208.82863 2.3475037e-16 -3.6682124)
(208.3795 -1.7557529e-16 -3.3699708)
(207.94872 0 -3.0842849)
(207.53499 -3.842265e-17 -2.8114004)
(207.13696 -7.1923205e-17 -2.5514324)
(206.75331 1.3439423e-16 -2.3044047)
(206.38264 1.257415e-16 -2.0702205)
(206.02344 -2.3498409e-16 -1.8486858)
(205.67401 8.2299278e-17 -1.6395367)
(205.33239 5.130391e-17 -1.4424555)
(204.99642 9.5915514e-17 -1.2571)
(204.66384 1.3446892e-16 -1.0831225)
(204.33247 2.4576532e-20 -0.92018191)
(204.00013 0 -0.7679475)
(203.66444 0 -0.62611798)
(203.32261 -3.4224079e-17 -0.49441279)
(202.9718 9.602528e-17 -0.37271313)
(202.61043 -8.9811013e-17 -0.26137994)
(202.24012 -8.4073507e-17 -0.15857007)
(201.86091 5.2463606e-17 -0.060852686)
(201.45441 0 0.0052007894)
(201.04132 4.6077167e-17 0.051326384)
(200.71915 2.6475296e-20 0.39822567)
(219.56394 0 -23.445674)
(258.2933 1.8304527e-20 -6.2774325)
(241.84758 9.0662717e-18 -23.243443)
(251.17871 2.8771588e-16 -8.0377846)
(245.16407 3.3314765e-19 -21.240509)
(248.2341 -5.051857e-16 -10.623089)
(245.72119 -3.2379942e-19 -18.879452)
(246.44146 4.558579e-16 -13.086187)
(245.29153 -2.0980502e-16 -16.999783)
(245.06592 -1.2444578e-17 -14.768443)
(244.37144 1.1819882e-17 -16.017038)
(243.83424 -1.794873e-16 -15.520677)
(243.20484 1.9122897e-16 -15.770625)
(242.57124 -1.8170244e-16 -15.736771)
(241.90635 3.0608806e-16 -15.783546)
(241.21755 -3.0839847e-16 -15.799393)
(240.5032 1.3745148e-16 -15.812186)
(239.76388 0 -15.814457)
(238.99988 0 -15.806464)
(238.21168 1.4641399e-17 -15.786853)
(237.39994 -2.7763878e-17 -15.75454)
(236.5655 0 -15.708357)
(235.70941 1.9936845e-16 -15.647141)
(234.83291 4.7395996e-19 -15.569749)
(233.93749 -3.5680114e-16 -15.475064)
(233.02485 1.6858927e-16 -15.36203)
(232.09692 1.9946829e-17 -15.229673)
(231.15585 0 -15.077122)
(230.20399 -1.7869682e-16 -14.903638)
(229.2439 1.3474521e-16 -14.70864)
(228.27829 -2.2345091e-16 -14.491725)
(227.31003 2.1031666e-16 -14.252698)
(226.34204 -2.2762657e-16 -13.991579)
(225.37735 2.1425784e-16 -13.708633)
(224.41897 7.5955674e-17 -13.404365)
(223.46987 0 -13.07953)
(222.53295 0 -12.735134)
(221.61096 4.2332103e-17 -12.372414)
(220.70649 3.9871746e-17 -11.992832)
(219.82189 -3.7538884e-17 -11.598047)
(218.95927 3.5327708e-17 -11.189891)
(218.12046 6.6657004e-17 -10.770332)
(217.30698 -6.2603349e-17 -10.341447)
(216.52006 3.5297942e-16 -9.905379)
(215.76058 -2.7611707e-16 -9.4643013)
(215.02916 5.1823757e-17 -9.0203837)
(214.32609 -4.8766563e-17 -8.5757538)
(213.65141 0 -8.1324686)
(213.00488 2.143405e-16 -7.6924848)
(212.38608 -1.6054772e-16 -7.2576377)
(211.79437 0 -6.8296191)
(211.22896 0 -6.4099676)
(210.68892 1.3210976e-16 -6.0000546)
(210.17321 -6.1749965e-17 -5.6010828)
(209.68074 0 -5.2140824)
(209.21032 -1.6224866e-16 -4.8399147)
(208.76074 1.0099763e-16 -4.4792766)
(208.33071 1.4176585e-16 -4.1327061)
(207.91893 -1.7634724e-16 -3.8005895)
(207.52405 1.6483538e-16 -3.4831758)
(207.14467 -1.5375876e-16 -3.180578)
(206.77936 6.6802379e-20 -2.8927827)
(206.42672 0 -2.6196895)
(206.08535 6.2501307e-17 -2.3610907)
(205.75373 -2.9141184e-16 -2.1166844)
(205.43022 1.629817e-16 -1.8861063)
(205.11292 0 -1.6689456)
(204.79976 -1.4171259e-16 -1.4647756)
(204.48852 8.8030826e-17 -1.2731786)
(204.17706 1.2315503e-16 -1.0937513)
(203.86329 3.4720229e-20 -0.92610098)
(203.54496 -7.1281173e-17 -0.76988943)
(203.21927 9.9692175e-17 -0.62488257)
(202.88333 -1.5486956e-16 -0.49092518)
(202.53591 8.6620465e-17 -0.36785108)
(202.17858 2.6909578e-17 -0.25421179)
(201.8087 5.0228506e-17 -0.14998391)
(201.41359 0 -0.075014927)
(201.02328 -4.3746234e-17 -0.0016661893)
(200.67067 2.0380039e-17 0.27917818)
(219.95644 0 -26.930416)
(259.02147 9.768077e-18 -8.9075848)
(242.05047 -3.0565899e-16 -26.737596)
(251.66477 2.4912309e-16 -10.797881)
(245.36461 2.5638537e-16 -24.618041)
(248.49413 -4.9961478e-16 -13.542305)
(245.88007 2.2998806e-16 -22.069927)
(246.56812 2.3277365e-16 -16.167493)
(245.37376 -2.2066657e-16 -20.049852)
(245.08 3.9276825e-17 -17.893044)
(244.34054 0 -19.027136)
(243.74436 0 -18.590935)
(243.0609 -2.2340821e-17 -18.781299)
(242.36781 -1.6962404e-16 -18.747786)
(241.64259 1.4037792e-16 -18.767636)
(240.89128 1.9044065e-17 -18.762459)
(240.11288 -3.6100416e-17 -18.749393)
(239.30815 3.0799967e-16 -18.723362)
(238.47768 -2.2633416e-16 -18.68382)
(237.62229 2.4566829e-16 -18.629297)
(236.74304 -2.0301143e-16 -18.558499)
(235.84117 2.7526298e-17 -18.470099)
(234.9182 1.5637986e-16 -18.362794)
(233.97588 -1.966835e-16 -18.235344)
(233.01623 0 -18.086574)
(232.0415 0 -17.915415)
(231.05421 0 -17.720934)
(230.0571 -1.9699785e-16 -17.50236)
(229.05311 1.8556739e-16 -17.259114)
(228.04537 -3.5164392e-17 -16.990834)
(227.03711 0 -16.69741)
(226.03169 -2.8188618e-16 -16.378994)
(225.03247 2.3559102e-16 -16.036015)
(224.04281 -5.5727096e-17 -15.669191)
(223.06598 1.5759423e-16 -15.279531)
(222.10512 -4.8970699e-17 -14.868318)
(221.16318 -1.8575531e-16 -14.437105)
(220.24287 2.1914e-16 -13.987684)
(219.34663 -1.6451596e-16 -13.52206)
(218.47657 7.7606528e-17 -13.042416)
(217.63444 -7.2817169e-17 -12.551075)
(216.82166 1.3689218e-16 -12.050448)
(216.03925 -6.4141258e-17 -11.543007)
(215.28791 -2.4141977e-16 -11.031227)
(214.56794 5.0907176e-16 -10.51755)
(213.87935 -2.1202622e-16 -10.004349)
(213.22185 -1.4941672e-16 -9.4938938)
(212.59486 9.2896709e-17 -8.9883178)
(211.99761 8.7389619e-17 -8.4896008)
(211.42911 -1.634822e-16 -7.9995489)
(210.88822 1.5274852e-16 -7.5197833)
(210.37371 0 -7.0517345)
(209.88424 1.3370168e-16 -6.5966385)
(209.41842 -1.8727747e-16 -6.1555411)
(208.97482 5.8362756e-17 -5.729302)
(208.55203 5.4391771e-17 -5.3186027)
(208.14859 0 -4.9239584)
(207.76308 0 -4.545726)
(207.39404 0 -4.184116)
(207.04004 0 -3.8392096)
(206.69959 0 -3.5109606)
(206.37125 -7.1469567e-17 -3.1992078)
(206.05358 0 -2.9037119)
(205.74518 -5.4255651e-20 -2.6241421)
(205.44457 2.3079436e-16 -2.3600829)
(205.15018 -2.1470322e-16 -2.1110656)
(204.86023 -9.9947866e-17 -1.8765855)
(204.57272 -1.8584124e-16 -1.6561341)
(204.28552 2.5905156e-16 -1.4492241)
(203.99657 4.3685179e-20 -1.2553871)
(203.70388 7.4614391e-17 -1.0741707)
(203.40531 0 -0.90522734)
(203.0981 0 -0.74835428)
(202.77947 0 -0.60321404)
(202.44843 -1.1137604e-16 -0.46928518)
(202.10577 0 -0.3462472)
(201.74778 -9.6229759e-17 -0.23554491)
(201.36868 1.341558e-16 -0.14715053)
(200.99761 8.315833e-17 -0.055229294)
(200.62202 -1.9281376e-17 0.16503625)
(220.14265 0 -30.590908)
(259.55271 0 -11.646018)
(242.06166 3.2157905e-16 -30.363541)
(251.97089 1.9258717e-17 -13.715297)
(245.37584 -2.6912403e-16 -28.106194)
(248.60082 0 -16.636425)
(245.8221 1.6122856e-17 -25.335686)
(246.57058 -3.0554285e-17 -19.399563)
(245.19303 0 -23.164275)
(244.83928 1.926431e-16 -21.137779)
(244.04757 -4.1709993e-16 -22.13599)
(243.38127 1.9750785e-16 -21.767943)
(242.63347 2.3444504e-17 -21.900645)
(241.87062 0 -21.862885)
(241.07486 2.103612e-17 -21.854793)
(240.25107 -3.3934656e-16 -21.824063)
(239.39895 7.480863e-17 -21.780436)
(238.51951 2.5008906e-16 -21.720261)
(237.61373 2.3751198e-16 -21.642493)
(236.68291 -2.5618487e-16 -21.545539)
(235.72857 0 -21.427933)
(234.75253 -2.874596e-16 -21.288224)
(233.75689 2.4406743e-16 -21.125019)
(232.74405 -2.0572448e-16 -20.937035)
(231.71669 1.9389629e-16 -20.723118)
(230.67776 -1.8375938e-16 -20.482273)
(229.63047 3.4665253e-16 -20.213727)
(228.57825 -1.6358905e-16 -19.916928)
(227.5247 1.5471546e-16 -19.591607)
(226.47354 -2.9168955e-16 -19.237783)
(225.42857 1.372848e-16 -18.855798)
(224.39358 1.2965824e-16 -18.446326)
(223.3723 -2.4463614e-16 -18.010368)
(222.36834 5.6789002e-17 -17.549262)
(221.38508 -5.7656354e-19 -17.064664)
(220.42567 2.5451775e-16 -16.558512)
(219.49293 0 -16.033014)
(218.58931 1.9735641e-19 -15.4906)
(217.71687 0 -14.933868)
(216.87725 -7.9448258e-17 -14.365549)
(216.07163 -1.4931217e-16 -13.78845)
(215.3008 7.010998e-17 -13.205395)
(214.56511 0 -12.619189)
(213.86452 -6.1782917e-17 -12.03256)
(213.19863 2.8917497e-16 -11.448125)
(212.56674 -3.2465981e-16 -10.86835)
(211.96787 -3.0420538e-16 -10.295529)
(211.40081 2.8403563e-16 -9.7317549)
(210.86417 -1.772599e-16 -9.1789122)
(210.35644 0 -8.6386657)
(209.87598 0 -8.1124592)
(209.42114 7.2350125e-17 -7.6015183)
(208.99022 6.7520902e-17 -7.1068576)
(208.58152 1.2583703e-16 -6.6292896)
(208.19337 -5.8680747e-17 -6.1694374)
(207.82414 -1.0931044e-16 -5.7277487)
(207.47224 -2.0384532e-16 -5.3045103)
(207.13612 -9.5099599e-17 -4.8998613)
(206.81426 1.7656518e-16 -4.5138073)
(206.50518 0 -4.146239)
(206.20739 -7.6479781e-17 -3.7969337)
(205.91943 -1.4216322e-16 -3.4655712)
(205.63989 1.3208646e-16 -3.1517669)
(205.3674 6.1266827e-17 -2.8550616)
(205.10055 5.6983967e-17 -2.5749257)
(204.83785 0 -2.3107878)
(204.57767 1.9646137e-16 -2.0620534)
(204.31813 1.8230367e-16 -1.8281372)
(204.05721 -2.536874e-16 -1.6084841)
(203.79294 7.8458901e-17 -1.4025587)
(203.52344 -7.2729389e-17 -1.2098616)
(203.24668 -4.5778968e-20 -1.0300573)
(202.96002 2.4998126e-16 -0.86291985)
(202.6609 -2.3168585e-16 -0.70783078)
(202.34833 5.3638549e-17 -0.56422697)
(202.02187 1.4920716e-16 -0.43326875)
(201.67812 -4.609172e-17 -0.31594504)
(201.31861 -4.2696193e-17 -0.21194931)
(200.96537 0 -0.10781589)
(200.57127 3.6583317e-17 0.056576897)
(220.12969 3.8895313e-16 -34.436373)
(259.88841 5.4096089e-19 -14.500052)
(241.85191 -3.5843273e-16 -34.135054)
(252.08757 0 -16.792365)
(245.11566 0 -31.665823)
(248.32914 -2.6720528e-16 -19.899354)
(245.46377 2.705214e-16 -28.658752)
(246.02994 6.4140101e-17 -22.796227)
(244.7602 -2.4351542e-16 -26.384221)
(244.3147 2.3032702e-16 -24.531363)
(243.46046 -2.4618816e-16 -25.371238)
(242.71141 2.0692524e-16 -25.066518)
(241.88736 -4.9091931e-17 -25.140526)
(241.04321 -4.6556231e-17 -25.088678)
(240.16549 -1.7641479e-16 -25.04744)
(239.25823 1.6662791e-16 -24.983291)
(238.32179 -3.5584898e-16 -24.901076)
(237.35758 5.9816607e-16 -24.797833)
(236.36714 -2.8262594e-16 -24.67211)
(235.35236 -2.6817296e-16 -24.522157)
(234.31543 2.5288724e-16 -24.346354)
(233.25889 -3.0121226e-17 -24.143157)
(232.18562 -2.2670407e-16 -23.911149)
(231.09882 2.1355387e-16 -23.649097)
(230.00199 2.5298894e-16 -23.355977)
(228.89892 -1.4264535e-16 -23.031024)
(227.79362 0 -22.673778)
(226.69028 2.5512105e-16 -22.284104)
(225.59317 -3.2044035e-16 -21.862238)
(224.50663 1.127425e-16 -21.408789)
(223.43493 -2.850729e-16 -20.924762)
(222.38221 2.0084839e-16 -20.41155)
(221.35241 -6.3290874e-17 -19.870925)
(220.3492 2.3783554e-16 -19.305007)
(219.37585 -2.2309473e-16 -18.71624)
(218.43525 -2.1026873e-16 -18.107337)
(217.5298 1.970812e-16 -17.481235)
(216.66142 -4.6222733e-17 -16.841036)
(215.83151 0 -16.189941)
(215.04094 8.1804898e-17 -15.53119)
(214.29009 -7.6348801e-17 -14.868007)
(213.5789 0 -14.203533)
(212.90683 1.3444818e-16 -13.540785)
(212.273 -6.2896468e-17 -12.882607)
(211.67618 -1.7635026e-16 -12.231642)
(211.1149 5.5010198e-16 -11.590302)
(210.58745 -2.0597389e-16 -10.960752)
(210.09198 9.6065885e-17 -10.344906)
(209.62653 -2.6937968e-16 -9.7444165)
(209.18907 -1.8149587e-19 -9.1606873)
(208.77758 1.5619571e-16 -8.5948781)
(208.39002 -1.4571426e-16 -8.0479173)
(208.02441 -6.7813394e-17 -7.5205183)
(207.67883 -6.3168735e-17 -7.0131961)
(207.35145 -1.1795177e-16 -6.5262845)
(207.0405 2.1905273e-16 -6.0599555)
(206.74433 0 -5.614236)
(206.46133 9.4665797e-17 -5.1890236)
(206.18999 -3.5226188e-16 -4.7841029)
(205.92883 2.4517095e-16 -4.3991637)
(205.67642 7.5876042e-17 -4.0338002)
(205.43132 1.4096017e-16 -3.6875317)
(205.19221 1.3097392e-16 -3.3598303)
(204.95776 -1.2118866e-16 -3.0501105)
(204.72667 -1.1230682e-16 -2.7577339)
(204.49758 -3.1242129e-16 -2.4820338)
(204.26897 -4.1009783e-20 -2.2223341)
(204.03915 -8.9289584e-17 -1.9779803)
(203.80622 0 -1.7483517)
(203.56833 -2.2955091e-16 -1.5328498)
(203.32371 7.0784569e-17 -1.3309476)
(203.07041 0 -1.1423278)
(202.80604 1.2110983e-16 -0.96665908)
(202.52834 0 -0.80301852)
(202.236 1.0347063e-16 -0.65118518)
(201.92712 -1.4338995e-16 -0.51377216)
(201.59993 1.3250876e-16 -0.3895226)
(201.26291 -8.1608673e-17 -0.26962278)
(200.92642 7.5369642e-17 -0.15991308)
(200.51811 0 -0.045499052)
(219.90077 -4.0861905e-16 -38.473751)
(260.01309 3.6176687e-16 -17.48641)
(241.38631 -3.3253023e-16 -38.077495)
(251.92964 3.300859e-16 -20.041003)
(244.56843 3.1667206e-16 -35.290016)
(247.84259 -1.7980341e-17 -23.354471)
(244.87636 -2.8348696e-16 -32.070146)
(245.37551 -2.690403e-16 -26.385154)
(244.01287 2.8643653e-16 -29.722077)
(243.46242 0 -28.069858)
(242.53529 2.8580986e-17 -28.736324)
(241.69107 0 -28.483397)
(240.77818 -1.2856258e-16 -28.498406)
(239.84049 2.4274569e-16 -28.421061)
(238.86862 0 -28.339067)
(237.86613 0 -28.231366)
(236.83419 0 -28.099733)
(235.77484 3.9099747e-17 -27.941463)
(234.69037 0 -27.754791)
(233.58351 -2.4453418e-16 -27.537845)
(232.45733 3.2947359e-16 -27.288908)
(231.31533 1.2466906e-16 -27.006457)
(230.16137 1.7677507e-16 -26.689172)
(228.99965 -2.7767093e-16 -26.336034)
(227.83466 -5.2322853e-17 -25.94635)
(226.67112 -2.4763455e-16 -25.519802)
(225.51393 1.8637714e-16 -25.056489)
(224.36802 -2.2013709e-16 -24.556956)
(223.23834 8.2356851e-17 -24.022197)
(222.1297 7.7867782e-17 -23.453676)
(221.04668 0 -22.853305)
(219.99358 2.7704772e-16 -22.223419)
(218.97425 -2.6021378e-16 -21.566746)
(217.99209 0 -20.886349)
(217.04994 -2.3004754e-16 -20.185571)
(216.15003 2.1547702e-16 -19.46796)
(215.294 -1.015521e-16 -18.737195)
(214.48285 1.9012416e-16 -17.997017)
(213.717 -2.6715042e-16 -17.251146)
(212.99629 1.2747372e-19 -16.503213)
(212.32004 -1.5609539e-16 -15.756703)
(211.68712 -7.3051481e-17 -15.0149)
(211.09602 -1.3711201e-16 -14.280843)
(210.5449 2.5561535e-16 -13.5573)
(210.03167 -1.1928369e-16 -12.846747)
(209.55408 0 -12.151359)
(209.10974 -3.8227212e-19 -11.473005)
(208.69623 9.704615e-17 -10.813265)
(208.31109 0 -10.173431)
(207.95189 8.4414008e-17 -9.5545303)
(207.61629 7.8929873e-17 -8.9573441)
(207.302 -7.3290445e-17 -8.3824275)
(207.00687 2.7286799e-16 -7.8301328)
(206.72886 -2.5367455e-16 -7.3006312)
(206.46605 -1.1798212e-16 -6.7939346)
(206.21665 -1.0960688e-16 -6.3099163)
(205.979 1.0177644e-16 -5.848329)
(205.75155 1.887987e-16 -5.4088222)
(205.53283 -3.5022161e-16 -4.9909574)
(205.32145 4.0589172e-16 -4.5942265)
(205.11605 -1.5039978e-16 -4.2180457)
(204.91531 1.3941122e-16 -3.8617816)
(204.71799 -1.290553e-16 -3.5247737)
(204.52287 2.3901785e-16 -3.206319)
(204.32876 -3.3181117e-16 -2.9056821)
(204.13443 2.0454896e-16 -2.6221124)
(203.93855 -7.9236712e-20 -2.3548654)
(203.73957 8.7435813e-17 -2.1032259)
(203.53579 0 -1.8665113)
(203.32548 0 -1.6440701)
(203.10695 0 -1.4353724)
(202.87835 -1.2708071e-16 -1.2401016)
(202.63762 1.3517346e-20 -1.0577303)
(202.3829 0 -0.88710344)
(202.11216 0 -0.72870538)
(201.82207 9.1914914e-17 -0.58619)
(201.51363 -1.6937995e-16 -0.45461436)
(201.20115 0 -0.31922649)
(200.88051 0 -0.20892348)
(200.46266 -1.3195239e-16 -0.14018938)
(219.42113 2.7583964e-17 -42.711063)
(259.88659 -7.8330411e-16 -20.623059)
(240.63637 3.4789089e-16 -42.159123)
(251.23797 -2.1697958e-17 -23.473213)
(243.71159 3.7324507e-16 -39.035775)
(247.0138 -3.5168922e-16 -27.033493)
(243.95813 0 -35.594121)
(244.32894 -3.1693348e-16 -30.162232)
(242.91552 2.330316e-16 -33.17297)
(242.2399 2.2133316e-16 -31.747129)
(241.22634 -2.38923e-16 -32.234334)
(240.27266 0 -32.014637)
(239.2563 1.9607101e-19 -31.968599)
(238.21122 0 -31.852029)
(237.13169 3.8489044e-16 -31.718018)
(236.02131 -7.270955e-16 -31.553199)
(234.88222 3.4326618e-16 -31.357481)
(233.71737 -4.0547816e-17 -31.128222)
(232.53012 -3.8535073e-17 -30.863444)
(231.32429 3.663e-17 -30.561233)
(230.10416 -6.8385481e-17 -30.219941)
(228.87442 -3.2398045e-16 -29.838222)
(227.64014 3.0491849e-16 -29.4151)
(226.4067 5.7479412e-17 -28.95004)
(225.1797 -2.7242792e-16 -28.442967)
(223.96485 -7.0200966e-19 -27.894343)
(222.76789 2.8933791e-16 -27.305157)
(221.59445 -1.8160612e-16 -26.676953)
(220.44993 -6.2356308e-19 -26.011816)
(219.33936 0 -25.312349)
(218.26733 0 -24.581631)