# Solver information
# Time          	U_solver        	Ux_initial      	Ux_final        	Ux_iters        	Uz_initial      	Uz_final        	Uz_iters        	U_converged     	e_solver        	e_initial       	e_final         	e_iters         	e_converged     	k_solver        	k_initial       	k_final         	k_iters         	k_converged     	omega_solver    	omega_initial   	omega_final     	omega_iters     	omega_converged 	p_solver        	p_initial       	p_final         	p_iters         	p_converged     
2e-05           	DILUPBiCGStab	1.00000000e+00	1.58047990e-07	2	1.00000000e+00	1.50834340e-07	2	false	DILUPBiCGStab	9.99999990e-01	1.44187980e-07	2	true	DILUPBiCGStab	1.00000000e+00	5.16389740e-07	2	true	DILUPBiCGStab	1.88966070e-04	9.11453140e-07	1	true	GAMG	1.00000000e+00	8.28396880e-04	3	true
4e-05           	DILUPBiCGStab	7.62186620e-03	1.97680880e-07	1	3.46085860e-01	3.16129440e-07	2	false	DILUPBiCGStab	3.07357040e-02	2.94085210e-08	2	true	DILUPBiCGStab	2.27657060e-02	8.62674640e-07	1	true	DILUPBiCGStab	1.68479090e-04	2.93790200e-07	1	true	GAMG	3.14111770e-02	8.85596220e-05	2	true
6e-05           	DILUPBiCGStab	4.51240110e-03	6.94614740e-08	1	2.13484400e-01	7.80456540e-08	2	false	DILUPBiCGStab	1.37546010e-02	7.54525940e-07	1	true	DILUPBiCGStab	1.29996890e-02	3.90338490e-07	1	true	DILUPBiCGStab	1.77081060e-04	3.97630300e-07	1	true	GAMG	1.32548310e-02	9.60862210e-05	2	true
8e-05           	DILUPBiCGStab	3.54254230e-03	4.43255770e-08	1	1.47760660e-01	3.70368210e-08	2	false	DILUPBiCGStab	9.72541510e-03	4.09411720e-07	1	true	DILUPBiCGStab	9.61772550e-03	2.41690470e-07	1	true	DILUPBiCGStab	1.83172040e-04	3.77427740e-07	1	true	GAMG	8.59139750e-03	6.56737480e-05	2	true
0.0001          	DILUPBiCGStab	3.19237820e-03	3.38652380e-08	1	1.15762840e-01	2.21157610e-08	2	false	DILUPBiCGStab	7.85229200e-03	2.73778480e-07	1	true	DILUPBiCGStab	7.94937100e-03	1.69986280e-07	1	true	DILUPBiCGStab	1.93361350e-04	3.48864010e-07	1	true	GAMG	6.85656290e-03	3.71431790e-05	2	true
0.00012         	DILUPBiCGStab	3.03178660e-03	2.74263050e-08	1	9.49267490e-02	1.43756950e-08	2	false	DILUPBiCGStab	6.91218890e-03	2.04445490e-07	1	true	DILUPBiCGStab	6.95162580e-03	1.28623900e-07	1	true	DILUPBiCGStab	2.07465440e-04	3.49187330e-07	1	true	GAMG	5.94494500e-03	2.25934220e-05	2	true
0.00014         	DILUPBiCGStab	2.94340340e-03	2.36260000e-08	1	8.05569270e-02	1.04432650e-08	2	false	DILUPBiCGStab	6.37111600e-03	1.63915430e-07	1	true	DILUPBiCGStab	6.29108860e-03	1.01961750e-07	1	true	DILUPBiCGStab	2.19201290e-04	3.48682700e-07	1	true	GAMG	5.37928200e-03	1.77282140e-05	2	true
0.00016         	DILUPBiCGStab	2.89757440e-03	2.09392850e-08	1	7.02407900e-02	8.01303150e-09	2	false	DILUPBiCGStab	6.04921000e-03	1.37333230e-07	1	true	DILUPBiCGStab	5.81767250e-03	8.36027510e-08	1	true	DILUPBiCGStab	2.31892210e-04	3.46134410e-07	1	true	GAMG	5.03935930e-03	1.43936690e-05	2	true
0.00018         	DILUPBiCGStab	2.87690580e-03	1.93310530e-08	1	6.24208380e-02	6.27303200e-09	2	false	DILUPBiCGStab	5.85478980e-03	1.18636990e-07	1	true	DILUPBiCGStab	5.45798730e-03	7.03347820e-08	1	true	DILUPBiCGStab	2.45275540e-04	3.38962740e-07	1	true	GAMG	4.82635130e-03	1.14926400e-05	2	true
0.0002          	DILUPBiCGStab	2.86986840e-03	1.83264280e-08	1	5.62949720e-02	5.05190440e-09	2	false	DILUPBiCGStab	5.73973770e-03	1.04902750e-07	1	true	DILUPBiCGStab	5.17768020e-03	6.01671080e-08	1	true	DILUPBiCGStab	2.59583640e-04	3.29140060e-07	1	true	GAMG	4.70036780e-03	9.19533100e-06	2	true
0.00022         	DILUPBiCGStab	2.87080880e-03	1.76087320e-08	1	5.13683550e-02	9.32871520e-07	1	false	DILUPBiCGStab	5.68451460e-03	9.43305260e-08	1	true	DILUPBiCGStab	4.94788710e-03	5.23043930e-08	1	true	DILUPBiCGStab	2.74819160e-04	3.17820250e-07	1	true	GAMG	4.62924580e-03	7.38299210e-06	2	true
0.00024         	DILUPBiCGStab	2.87865150e-03	1.70468190e-08	1	4.72866160e-02	7.89097020e-07	1	false	DILUPBiCGStab	5.66660580e-03	8.61636960e-08	1	true	DILUPBiCGStab	4.75396120e-03	4.60734490e-08	1	true	DILUPBiCGStab	2.91126190e-04	3.04911840e-07	1	true	GAMG	4.59005740e-03	5.91445750e-06	2	true
0.00026         	DILUPBiCGStab	2.89209990e-03	1.65683270e-08	1	4.38812130e-02	6.77153780e-07	1	false	DILUPBiCGStab	5.68028580e-03	7.96708680e-08	1	true	DILUPBiCGStab	4.58820460e-03	4.10438890e-08	1	true	DILUPBiCGStab	3.07022620e-04	2.90378690e-07	1	true	GAMG	4.57638690e-03	4.76363990e-06	2	true
0.00028         	DILUPBiCGStab	2.91010160e-03	1.61724990e-08	1	4.09741730e-02	5.88443970e-07	1	false	DILUPBiCGStab	5.71450320e-03	7.45973510e-08	1	true	DILUPBiCGStab	4.44496280e-03	3.69305980e-08	1	true	DILUPBiCGStab	3.17768070e-04	2.76114830e-07	1	true	GAMG	4.57994230e-03	3.89774720e-06	2	true
0.0003          	DILUPBiCGStab	2.92924450e-03	1.58704010e-08	1	3.84660610e-02	5.16882220e-07	1	false	DILUPBiCGStab	5.76325850e-03	7.02855870e-08	1	true	DILUPBiCGStab	4.31455650e-03	3.34933980e-08	1	true	DILUPBiCGStab	3.22243970e-04	2.62568280e-07	1	true	GAMG	4.60233800e-03	3.16345640e-06	2	true
0.00032         	DILUPBiCGStab	2.95037070e-03	1.56552300e-08	1	3.62790820e-02	4.58197770e-07	1	false	DILUPBiCGStab	5.83199170e-03	6.66443520e-08	1	true	DILUPBiCGStab	4.19319540e-03	3.05835180e-08	1	true	DILUPBiCGStab	3.22343800e-04	2.50224270e-07	1	true	GAMG	4.63550080e-03	2.60611550e-06	2	true
0.00034         	DILUPBiCGStab	2.97389330e-03	1.55154690e-08	1	3.43548150e-02	4.09839820e-07	1	false	DILUPBiCGStab	5.91247620e-03	6.36034640e-08	1	true	DILUPBiCGStab	4.08312760e-03	2.80518090e-08	1	true	DILUPBiCGStab	3.20172760e-04	2.39464230e-07	1	true	GAMG	4.67910580e-03	2.14789750e-06	2	true
0.00036         	DILUPBiCGStab	2.99717400e-03	1.54924750e-08	1	3.26534840e-02	3.70153370e-07	1	false	DILUPBiCGStab	6.00347920e-03	6.10119610e-08	1	true	DILUPBiCGStab	3.98074140e-03	2.58372010e-08	1	true	DILUPBiCGStab	3.16804680e-04	2.30449320e-07	1	true	GAMG	4.73370710e-03	1.79972950e-06	2	true
0.00038         	DILUPBiCGStab	3.02477470e-03	1.56364630e-08	1	3.11265050e-02	3.36325600e-07	1	false	DILUPBiCGStab	6.10173180e-03	5.88532960e-08	1	true	DILUPBiCGStab	3.88386810e-03	2.38884100e-08	1	true	DILUPBiCGStab	3.13176910e-04	2.22987820e-07	1	true	GAMG	4.79234080e-03	4.34359830e-05	1	true
0.0004          	DILUPBiCGStab	3.05301900e-03	1.60053730e-08	1	2.97597780e-02	3.06894830e-07	1	false	DILUPBiCGStab	6.20893950e-03	5.69513030e-08	1	true	DILUPBiCGStab	3.79195540e-03	2.21904540e-08	1	true	DILUPBiCGStab	3.09592640e-04	2.17403760e-07	1	true	GAMG	4.85778510e-03	3.89682860e-05	1	true
0.00042         	DILUPBiCGStab	3.07936250e-03	1.63874540e-08	1	2.85287270e-02	2.81110120e-07	1	false	DILUPBiCGStab	6.32445320e-03	5.52604020e-08	1	true	DILUPBiCGStab	3.70547360e-03	2.07138820e-08	1	true	DILUPBiCGStab	3.06203060e-04	2.14136170e-07	1	true	GAMG	4.93029850e-03	3.51727960e-05	1	true
0.00044         	DILUPBiCGStab	3.11051990e-03	1.67464590e-08	1	2.74206470e-02	2.58971860e-07	1	false	DILUPBiCGStab	6.44820320e-03	5.36808530e-08	1	true	DILUPBiCGStab	3.62107840e-03	1.93443630e-08	1	true	DILUPBiCGStab	3.01973660e-04	2.13523400e-07	1	true	GAMG	5.00618310e-03	3.18552230e-05	1	true
0.00046         	DILUPBiCGStab	3.14081230e-03	1.70413140e-08	1	2.64055120e-02	2.38527350e-07	1	false	DILUPBiCGStab	6.57590540e-03	5.20704070e-08	1	true	DILUPBiCGStab	3.54217190e-03	1.80762590e-08	1	true	DILUPBiCGStab	2.97704840e-04	2.13742730e-07	1	true	GAMG	5.08271480e-03	2.90166150e-05	1	true
0.00048         	DILUPBiCGStab	3.17096890e-03	1.72378740e-08	1	2.54773890e-02	2.19764210e-07	1	false	DILUPBiCGStab	6.70702920e-03	5.02413430e-08	1	true	DILUPBiCGStab	3.46685060e-03	1.68875180e-08	1	true	DILUPBiCGStab	2.93375830e-04	2.14221550e-07	1	true	GAMG	5.17020460e-03	2.63442100e-05	1	true
0.0005          	DILUPBiCGStab	3.20478720e-03	1.72976630e-08	1	2.46285890e-02	2.03144310e-07	1	false	DILUPBiCGStab	6.84073720e-03	4.85028730e-08	1	true	DILUPBiCGStab	3.39355770e-03	1.57514070e-08	1	true	DILUPBiCGStab	2.89164110e-04	2.14932740e-07	1	true	GAMG	5.25787450e-03	2.41613650e-05	1	true
0.00052         	DILUPBiCGStab	3.23804790e-03	1.71886800e-08	1	2.38411120e-02	1.87462370e-07	1	false	DILUPBiCGStab	6.98866130e-03	4.75008530e-08	1	true	DILUPBiCGStab	3.32364890e-03	1.47712910e-08	1	true	DILUPBiCGStab	2.85006400e-04	2.15438900e-07	1	true	GAMG	5.35160790e-03	2.21466640e-05	1	true
0.00054         	DILUPBiCGStab	3.27211250e-03	1.68995780e-08	1	2.31208400e-02	1.73085930e-07	1	false	DILUPBiCGStab	7.13557420e-03	4.69732170e-08	1	true	DILUPBiCGStab	3.25421570e-03	1.42853220e-08	1	true	DILUPBiCGStab	2.80954950e-04	2.15929460e-07	1	true	GAMG	5.44113990e-03	2.03215930e-05	1	true
0.00056         	DILUPBiCGStab	3.30731530e-03	1.64376270e-08	1	2.24610570e-02	1.60876530e-07	1	false	DILUPBiCGStab	7.28283830e-03	4.69278340e-08	1	true	DILUPBiCGStab	3.19123530e-03	1.40365970e-08	1	true	DILUPBiCGStab	2.76960720e-04	2.16521030e-07	1	true	GAMG	5.54347470e-03	1.87924220e-05	1	true
0.00058         	DILUPBiCGStab	3.34286990e-03	1.58285860e-08	1	2.18306530e-02	1.50844100e-07	1	false	DILUPBiCGStab	7.43599630e-03	4.72900720e-08	1	true	DILUPBiCGStab	3.12673530e-03	1.38122500e-08	1	true	DILUPBiCGStab	2.73024240e-04	2.17059660e-07	1	true	GAMG	5.64173590e-03	1.73949950e-05	1	true
0.0006          	DILUPBiCGStab	3.38053000e-03	1.51078080e-08	1	2.12546740e-02	1.42512160e-07	1	false	DILUPBiCGStab	7.59487560e-03	4.78591670e-08	1	true	DILUPBiCGStab	3.06568090e-03	1.36307170e-08	1	true	DILUPBiCGStab	2.69139750e-04	2.17924090e-07	1	true	GAMG	5.74156370e-03	1.60941100e-05	1	true
0.00062         	DILUPBiCGStab	3.41809600e-03	1.43747840e-08	1	2.07295630e-02	1.35843400e-07	1	false	DILUPBiCGStab	7.74947440e-03	4.83871290e-08	1	true	DILUPBiCGStab	3.00680450e-03	1.34990660e-08	1	true	DILUPBiCGStab	2.65296030e-04	2.19186530e-07	1	true	GAMG	5.84833210e-03	1.49667280e-05	1	true
0.00064         	DILUPBiCGStab	3.45750470e-03	1.37783160e-08	1	2.02142920e-02	1.32214020e-07	1	false	DILUPBiCGStab	7.91464020e-03	4.91560270e-08	1	true	DILUPBiCGStab	2.95026010e-03	1.33408430e-08	1	true	DILUPBiCGStab	2.61543420e-04	2.20545480e-07	1	true	GAMG	5.95033350e-03	1.40699600e-05	1	true
0.00066         	DILUPBiCGStab	3.49694550e-03	1.31851250e-08	1	1.97515740e-02	1.28581810e-07	1	false	DILUPBiCGStab	8.07678970e-03	4.96926310e-08	1	true	DILUPBiCGStab	2.89281260e-03	1.31482170e-08	1	true	DILUPBiCGStab	2.57895130e-04	2.22363570e-07	1	true	GAMG	6.05919970e-03	1.31236280e-05	1	true
0.00068         	DILUPBiCGStab	3.53773370e-03	1.26259680e-08	1	1.93128030e-02	1.25224030e-07	1	false	DILUPBiCGStab	8.24131120e-03	5.02157010e-08	1	true	DILUPBiCGStab	2.84087310e-03	1.29647890e-08	1	true	DILUPBiCGStab	2.54349790e-04	2.24495640e-07	1	true	GAMG	6.17018920e-03	1.22350650e-05	1	true
0.0007          	DILUPBiCGStab	3.57875340e-03	1.21150630e-08	1	1.88924580e-02	1.21894250e-07	1	false	DILUPBiCGStab	8.41178010e-03	5.05978370e-08	1	true	DILUPBiCGStab	2.78663280e-03	1.27027010e-08	1	true	DILUPBiCGStab	2.50932020e-04	2.27075170e-07	1	true	GAMG	6.27680350e-03	1.14888880e-05	1	true
0.00072         	DILUPBiCGStab	3.62009470e-03	1.16598940e-08	1	1.85142490e-02	1.18519460e-07	1	false	DILUPBiCGStab	8.57616080e-03	5.08409460e-08	1	true	DILUPBiCGStab	2.73675980e-03	1.24681450e-08	1	true	DILUPBiCGStab	2.47631140e-04	2.29981850e-07	1	true	GAMG	6.39084520e-03	1.07914840e-05	1	true
0.00074         	DILUPBiCGStab	3.66323790e-03	1.12607350e-08	1	1.81288990e-02	1.15228080e-07	1	false	DILUPBiCGStab	8.75050690e-03	5.11223370e-08	1	true	DILUPBiCGStab	2.68581190e-03	1.21676640e-08	1	true	DILUPBiCGStab	2.44406860e-04	2.33453390e-07	1	true	GAMG	6.49911160e-03	1.01438140e-05	1	true
0.00076         	DILUPBiCGStab	3.70468760e-03	1.09046750e-08	1	1.78074940e-02	1.12117030e-07	1	false	DILUPBiCGStab	8.91365440e-03	5.11328880e-08	1	true	DILUPBiCGStab	2.63722510e-03	1.19076320e-08	1	true	DILUPBiCGStab	2.41263000e-04	2.37674070e-07	1	true	GAMG	6.61613280e-03	9.49260280e-06	1	true
0.00078         	DILUPBiCGStab	3.74886780e-03	1.05884110e-08	1	1.74636090e-02	1.08750260e-07	1	false	DILUPBiCGStab	9.09265720e-03	5.15378950e-08	1	true	DILUPBiCGStab	2.59124960e-03	1.16053220e-08	1	true	DILUPBiCGStab	2.38265320e-04	2.42795610e-07	1	true	GAMG	6.72871180e-03	8.93763390e-06	1	true
0.0008          	DILUPBiCGStab	3.79193790e-03	1.03104340e-08	1	1.71704580e-02	1.05410120e-07	1	false	DILUPBiCGStab	9.25534270e-03	5.19041560e-08	1	true	DILUPBiCGStab	2.54525120e-03	1.13006570e-08	1	true	DILUPBiCGStab	2.35386520e-04	2.49069690e-07	1	true	GAMG	6.84404390e-03	8.46750490e-06	1	true
0.00082         	DILUPBiCGStab	3.83516460e-03	1.00503580e-08	1	1.68578580e-02	1.02329740e-07	1	false	DILUPBiCGStab	9.43667020e-03	5.21316750e-08	1	true	DILUPBiCGStab	2.50111340e-03	1.10153170e-08	1	true	DILUPBiCGStab	2.32577380e-04	2.56660570e-07	1	true	GAMG	6.95993970e-03	7.98230560e-06	1	true
0.00084         	DILUPBiCGStab	3.87961210e-03	9.81655480e-09	1	1.65999080e-02	9.92022610e-08	1	false	DILUPBiCGStab	9.59938350e-03	5.22474400e-08	1	true	DILUPBiCGStab	2.45915890e-03	1.07241460e-08	1	true	DILUPBiCGStab	2.29858840e-04	2.66118420e-07	1	true	GAMG	7.07432990e-03	7.57326630e-06	1	true
0.00086         	DILUPBiCGStab	3.92271270e-03	9.60893680e-09	1	1.63190140e-02	9.60414970e-08	1	false	DILUPBiCGStab	9.77979220e-03	5.24045160e-08	1	true	DILUPBiCGStab	2.41769950e-03	1.04369160e-08	1	true	DILUPBiCGStab	2.27243150e-04	2.77856280e-07	1	true	GAMG	7.19514840e-03	7.19734130e-06	1	true
0.00088         	DILUPBiCGStab	3.96808580e-03	9.40821740e-09	1	1.60861990e-02	9.31322040e-08	1	false	DILUPBiCGStab	9.94739990e-03	5.23433740e-08	1	true	DILUPBiCGStab	2.37882510e-03	1.01741450e-08	1	true	DILUPBiCGStab	2.24744410e-04	2.92289350e-07	1	true	GAMG	7.30981900e-03	6.85096060e-06	1	true
0.0009          	DILUPBiCGStab	4.01156420e-03	9.23712170e-09	1	1.58381290e-02	9.00556600e-08	1	false	DILUPBiCGStab	1.01193830e-02	5.24467890e-08	1	true	DILUPBiCGStab	2.34084050e-03	9.90064970e-09	1	true	DILUPBiCGStab	2.22315620e-04	3.11130750e-07	1	true	GAMG	7.43132910e-03	6.53860470e-06	1	true
0.00092         	DILUPBiCGStab	4.05417890e-03	9.06001230e-09	1	1.56094880e-02	8.72764470e-08	1	false	DILUPBiCGStab	1.02963640e-02	5.23164570e-08	1	true	DILUPBiCGStab	2.30151540e-03	9.64302150e-09	1	true	DILUPBiCGStab	2.19862900e-04	3.34492030e-07	1	true	GAMG	7.54350520e-03	6.20897400e-06	1	true
0.00094         	DILUPBiCGStab	4.09996280e-03	8.91038020e-09	1	1.54018820e-02	8.44156790e-08	1	false	DILUPBiCGStab	1.04639240e-02	5.23527570e-08	1	true	DILUPBiCGStab	2.26854120e-03	9.41470330e-09	1	true	DILUPBiCGStab	2.17525410e-04	3.62409760e-07	1	true	GAMG	7.67172490e-03	5.95043210e-06	1	true
0.00096         	DILUPBiCGStab	4.14282300e-03	8.76929100e-09	1	1.51816780e-02	8.17153930e-08	1	false	DILUPBiCGStab	1.06414080e-02	5.21976870e-08	1	true	DILUPBiCGStab	2.23298740e-03	9.16313630e-09	1	true	DILUPBiCGStab	2.15299410e-04	3.94449250e-07	1	true	GAMG	7.78662780e-03	5.69182550e-06	1	true
0.00098         	DILUPBiCGStab	4.18521280e-03	8.63512640e-09	1	1.50025380e-02	7.91178520e-08	1	false	DILUPBiCGStab	1.08104330e-02	5.21479470e-08	1	true	DILUPBiCGStab	2.19843450e-03	8.95493640e-09	1	true	DILUPBiCGStab	2.13168410e-04	4.30486600e-07	1	true	GAMG	7.90584690e-03	5.41672770e-06	1	true
0.001           	DILUPBiCGStab	4.22924990e-03	8.49505100e-09	1	1.47917990e-02	7.65450070e-08	1	false	DILUPBiCGStab	1.09901490e-02	5.19794410e-08	1	true	DILUPBiCGStab	2.16707070e-03	8.73092150e-09	1	true	DILUPBiCGStab	2.10990410e-04	4.71272990e-07	1	true	GAMG	8.03567040e-03	5.15665970e-06	1	true
0.00102         	DILUPBiCGStab	4.27118560e-03	8.36307890e-09	1	1.46230330e-02	7.40962500e-08	1	false	DILUPBiCGStab	1.11600610e-02	5.17936120e-08	1	true	DILUPBiCGStab	2.13436910e-03	8.53462650e-09	1	true	DILUPBiCGStab	2.08920690e-04	5.16476100e-07	1	true	GAMG	8.14458820e-03	4.91010690e-06	1	true
0.00104         	DILUPBiCGStab	4.31191440e-03	8.23516850e-09	1	1.44546000e-02	7.16648250e-08	1	false	DILUPBiCGStab	1.13327150e-02	5.17023930e-08	1	true	DILUPBiCGStab	2.10347450e-03	8.33165180e-09	1	true	DILUPBiCGStab	2.06946190e-04	5.67090900e-07	1	true	GAMG	8.27547740e-03	4.68095140e-06	1	true
0.00106         	DILUPBiCGStab	4.35480470e-03	8.10189130e-09	1	1.42706340e-02	6.93891090e-08	1	false	DILUPBiCGStab	1.15162570e-02	5.14100440e-08	1	true	DILUPBiCGStab	2.07458820e-03	8.15451510e-09	1	true	DILUPBiCGStab	2.05018600e-04	6.22405030e-07	1	true	GAMG	8.39978700e-03	4.48283270e-06	1	true
0.00108         	DILUPBiCGStab	4.39563980e-03	7.97542360e-09	1	1.41272140e-02	6.69952220e-08	1	false	DILUPBiCGStab	1.16791950e-02	5.13775750e-08	1	true	DILUPBiCGStab	2.04508120e-03	7.97800590e-09	1	true	DILUPBiCGStab	2.03088000e-04	6.81189730e-07	1	true	GAMG	8.51296740e-03	4.30405290e-06	1	true
0.0011          	DILUPBiCGStab	4.43414150e-03	7.83867210e-09	1	1.39656340e-02	6.50291240e-08	1	false	DILUPBiCGStab	1.18564910e-02	5.11311590e-08	1	true	DILUPBiCGStab	2.01638570e-03	7.79182760e-09	1	true	DILUPBiCGStab	2.01162650e-04	7.42324820e-07	1	true	GAMG	8.64685010e-03	4.13394020e-06	1	true
0.00112         	DILUPBiCGStab	4.47673090e-03	7.69420170e-09	1	1.38129800e-02	6.28246180e-08	1	false	DILUPBiCGStab	1.20384860e-02	5.09128890e-08	1	true	DILUPBiCGStab	1.98954160e-03	7.65389590e-09	1	true	DILUPBiCGStab	1.99341730e-04	8.03768960e-07	1	true	GAMG	8.76549850e-03	3.94730590e-06	1	true
0.00114         	DILUPBiCGStab	4.51785040e-03	7.55032220e-09	1	1.36861690e-02	6.07929300e-08	1	false	DILUPBiCGStab	1.22028480e-02	5.08395690e-08	1	true	DILUPBiCGStab	1.96269490e-03	7.50280370e-09	1	true	DILUPBiCGStab	1.97644870e-04	8.70686180e-07	1	true	GAMG	8.88869540e-03	3.78147000e-06	1	true
0.00116         	DILUPBiCGStab	4.55731080e-03	7.45555250e-09	1	1.35361430e-02	5.89625320e-08	1	false	DILUPBiCGStab	1.23774640e-02	5.05196170e-08	1	true	DILUPBiCGStab	1.93615160e-03	7.35288800e-09	1	true	DILUPBiCGStab	1.96014520e-04	9.42152770e-07	1	true	GAMG	9.01605390e-03	3.63811890e-06	1	true
0.00118         	DILUPBiCGStab	4.59914690e-03	7.40697760e-09	1	1.34028980e-02	5.69323670e-08	1	false	DILUPBiCGStab	1.25579980e-02	5.04456700e-08	1	true	DILUPBiCGStab	1.91114090e-03	7.22845490e-09	1	true	DILUPBiCGStab	1.94306240e-04	2.09073800e-09	1	true	GAMG	9.13792950e-03	3.50984760e-06	1	true
0.0012          	DILUPBiCGStab	4.64183280e-03	7.38649380e-09	1	1.32831050e-02	5.52214260e-08	1	false	DILUPBiCGStab	1.27291240e-02	5.03236280e-08	1	true	DILUPBiCGStab	1.88682870e-03	7.09880970e-09	1	true	DILUPBiCGStab	1.92704420e-04	2.48218260e-09	1	true	GAMG	9.26296000e-03	3.39161150e-06	1	true
0.00122         	DILUPBiCGStab	4.68530760e-03	7.42200140e-09	1	1.31565680e-02	5.35325260e-08	1	false	DILUPBiCGStab	1.28969080e-02	5.00088810e-08	1	true	DILUPBiCGStab	1.86286660e-03	6.98086350e-09	1	true	DILUPBiCGStab	1.91181780e-04	3.06661410e-09	1	true	GAMG	9.38920080e-03	3.27979880e-06	1	true
0.00124         	DILUPBiCGStab	4.73048560e-03	7.57290370e-09	1	1.30322070e-02	5.17372660e-08	1	false	DILUPBiCGStab	1.30804920e-02	5.00316320e-08	1	true	DILUPBiCGStab	1.83903220e-03	6.87730170e-09	1	true	DILUPBiCGStab	1.89737640e-04	3.71605810e-09	1	true	GAMG	9.51367710e-03	3.15506120e-06	1	true
0.00126         	DILUPBiCGStab	4.78136570e-03	7.79431120e-09	1	1.29215810e-02	5.01645000e-08	1	false	DILUPBiCGStab	1.32519710e-02	4.99616300e-08	1	true	DILUPBiCGStab	1.81527930e-03	6.77123370e-09	1	true	DILUPBiCGStab	1.88303480e-04	4.41459620e-09	1	true	GAMG	9.63555640e-03	3.05132580e-06	1	true
0.00128         	DILUPBiCGStab	4.83169220e-03	8.06855800e-09	1	1.28160330e-02	4.87017410e-08	1	false	DILUPBiCGStab	1.34215980e-02	4.97106620e-08	1	true	DILUPBiCGStab	1.79367860e-03	6.68110620e-09	1	true	DILUPBiCGStab	1.86843490e-04	5.04671250e-09	1	true	GAMG	9.76497190e-03	2.95097560e-06	1	true
0.0013          	DILUPBiCGStab	4.88253130e-03	8.39505350e-09	1	1.26985130e-02	4.71151340e-08	1	false	DILUPBiCGStab	1.35953640e-02	4.98016350e-08	1	true	DILUPBiCGStab	1.77274730e-03	6.60130290e-09	1	true	DILUPBiCGStab	1.85451290e-04	5.42184860e-09	1	true	GAMG	9.89409620e-03	2.85338140e-06	1	true
0.00132         	DILUPBiCGStab	4.93595400e-03	8.77299290e-09	1	1.25960060e-02	4.56465450e-08	1	false	DILUPBiCGStab	1.37786660e-02	4.97936930e-08	1	true	DILUPBiCGStab	1.75091980e-03	6.50695920e-09	1	true	DILUPBiCGStab	1.84151330e-04	5.68599110e-09	1	true	GAMG	1.00151130e-02	2.76523360e-06	1	true
0.00134         	DILUPBiCGStab	4.99212960e-03	9.18085200e-09	1	1.25055670e-02	4.44364840e-08	1	false	DILUPBiCGStab	1.39382340e-02	4.96456130e-08	1	true	DILUPBiCGStab	1.72848050e-03	6.41709510e-09	1	true	DILUPBiCGStab	1.82942520e-04	5.78832810e-09	1	true	GAMG	1.01345320e-02	2.69598190e-06	1	true
0.00136         	DILUPBiCGStab	5.04830260e-03	9.60830580e-09	1	1.24016600e-02	4.30724930e-08	1	false	DILUPBiCGStab	1.41144110e-02	4.97103930e-08	1	true	DILUPBiCGStab	1.71006880e-03	6.33358930e-09	1	true	DILUPBiCGStab	1.81643480e-04	5.78188850e-09	1	true	GAMG	1.02701550e-02	2.61904170e-06	1	true
0.00138         	DILUPBiCGStab	5.10420050e-03	1.00490750e-08	1	1.22945940e-02	4.16477620e-08	1	false	DILUPBiCGStab	1.42905790e-02	4.98314020e-08	1	true	DILUPBiCGStab	1.69073590e-03	6.22462730e-09	1	true	DILUPBiCGStab	1.80354100e-04	5.80221690e-09	1	true	GAMG	1.03944470e-02	2.54267530e-06	1	true
0.0014          	DILUPBiCGStab	5.16302600e-03	1.05361640e-08	1	1.22210520e-02	4.06581360e-08	1	false	DILUPBiCGStab	1.44574940e-02	4.97940600e-08	1	true	DILUPBiCGStab	1.66862990e-03	6.10505830e-09	1	true	DILUPBiCGStab	1.79148590e-04	5.78654860e-09	1	true	GAMG	1.04999320e-02	2.46179070e-06	1	true
0.00142         	DILUPBiCGStab	5.22352710e-03	1.10438820e-08	1	1.21333640e-02	3.95385170e-08	1	false	DILUPBiCGStab	1.46118200e-02	4.97728230e-08	1	true	DILUPBiCGStab	1.64894740e-03	5.97933440e-09	1	true	DILUPBiCGStab	1.78029710e-04	5.69083140e-09	1	true	GAMG	1.06302430e-02	2.40947830e-06	1	true
0.00144         	DILUPBiCGStab	5.28473400e-03	1.15524890e-08	1	1.20209810e-02	3.82885490e-08	1	false	DILUPBiCGStab	1.47871630e-02	4.99472140e-08	1	true	DILUPBiCGStab	1.63300380e-03	5.85486630e-09	1	true	DILUPBiCGStab	1.76988930e-04	5.19948400e-09	1	true	GAMG	1.07577950e-02	2.34311330e-06	1	true
0.00146         	DILUPBiCGStab	5.34622940e-03	1.20445290e-08	1	1.19515780e-02	3.73030610e-08	1	false	DILUPBiCGStab	1.49496970e-02	4.99450210e-08	1	true	DILUPBiCGStab	1.61388390e-03	5.71460500e-09	1	true	DILUPBiCGStab	1.75826360e-04	4.66740400e-09	1	true	GAMG	1.08678010e-02	2.26763070e-06	1	true
0.00148         	DILUPBiCGStab	5.40891390e-03	1.25322750e-08	1	1.18800570e-02	3.63677170e-08	1	false	DILUPBiCGStab	1.50906710e-02	4.99174710e-08	1	true	DILUPBiCGStab	1.59136240e-03	5.54470420e-09	1	true	DILUPBiCGStab	1.74691460e-04	4.12530040e-09	1	true	GAMG	1.09655430e-02	2.20529850e-06	1	true
0.0015          	DILUPBiCGStab	5.47378500e-03	1.30118850e-08	1	1.17878960e-02	3.53311310e-08	1	false	DILUPBiCGStab	1.52417530e-02	4.98042830e-08	1	true	DILUPBiCGStab	1.57500050e-03	5.38664100e-09	1	true	DILUPBiCGStab	1.73656180e-04	9.78045430e-07	1	true	GAMG	1.10870480e-02	2.14184820e-06	1	true
0.00152         	DILUPBiCGStab	5.53995790e-03	1.34578850e-08	1	1.16950840e-02	3.43043190e-08	1	false	DILUPBiCGStab	1.54039110e-02	4.97581150e-08	1	true	DILUPBiCGStab	1.55887170e-03	5.23647060e-09	1	true	DILUPBiCGStab	1.72709670e-04	8.90290050e-07	1	true	GAMG	1.12037160e-02	2.08077490e-06	1	true
0.00154         	DILUPBiCGStab	5.60658200e-03	1.38563510e-08	1	1.16288450e-02	3.34648810e-08	1	false	DILUPBiCGStab	1.55410210e-02	4.95643770e-08	1	true	DILUPBiCGStab	1.54022490e-03	5.07546360e-09	1	true	DILUPBiCGStab	1.71832490e-04	8.04078000e-07	1	true	GAMG	1.12961770e-02	2.01490460e-06	1	true
0.00156         	DILUPBiCGStab	5.67804960e-03	1.42141830e-08	1	1.15619880e-02	3.25708620e-08	1	false	DILUPBiCGStab	1.56517930e-02	4.92008360e-08	1	true	DILUPBiCGStab	1.52040530e-03	4.89548420e-09	1	true	DILUPBiCGStab	1.70791250e-04	7.17797060e-07	1	true	GAMG	1.13879960e-02	1.95800030e-06	1	true
0.00158         	DILUPBiCGStab	5.76117930e-03	1.45529450e-08	1	1.14708470e-02	3.16901440e-08	1	false	DILUPBiCGStab	1.57920480e-02	4.87385760e-08	1	true	DILUPBiCGStab	1.50499730e-03	4.72857530e-09	1	true	DILUPBiCGStab	1.69842700e-04	6.35517510e-07	1	true	GAMG	1.14889480e-02	1.89951910e-06	1	true
0.0016          	DILUPBiCGStab	5.85096160e-03	1.48172060e-08	1	1.13921950e-02	3.06915220e-08	1	false	DILUPBiCGStab	1.59299770e-02	4.82998700e-08	1	true	DILUPBiCGStab	1.48844840e-03	4.56888680e-09	1	true	DILUPBiCGStab	1.69000290e-04	5.67448590e-07	1	true	GAMG	1.15919300e-02	1.85946780e-06	1	true
0.00162         	DILUPBiCGStab	5.94531190e-03	1.50015880e-08	1	1.13314490e-02	2.98711690e-08	1	false	DILUPBiCGStab	1.60463650e-02	4.76786200e-08	1	true	DILUPBiCGStab	1.47077820e-03	4.40128820e-09	1	true	DILUPBiCGStab	1.68234460e-04	5.10026190e-07	1	true	GAMG	1.16638870e-02	1.82333600e-06	1	true
0.00164         	DILUPBiCGStab	6.04068380e-03	1.50970750e-08	1	1.12627610e-02	2.90624750e-08	1	false	DILUPBiCGStab	1.61273320e-02	4.68089530e-08	1	true	DILUPBiCGStab	1.45307800e-03	4.22740410e-09	1	true	DILUPBiCGStab	1.67427870e-04	4.62690600e-07	1	true	GAMG	1.17414940e-02	1.78738910e-06	1	true
0.00166         	DILUPBiCGStab	6.14285890e-03	1.51270910e-08	1	1.11801530e-02	2.81878770e-08	1	false	DILUPBiCGStab	1.62422690e-02	4.57859110e-08	1	true	DILUPBiCGStab	1.43732420e-03	4.05077700e-09	1	true	DILUPBiCGStab	1.66536650e-04	4.26421980e-07	1	true	GAMG	1.18342150e-02	1.75310750e-06	1	true
0.00168         	DILUPBiCGStab	6.24753420e-03	1.50626770e-08	1	1.11010370e-02	2.72060340e-08	1	false	DILUPBiCGStab	1.63617960e-02	4.48873530e-08	1	true	DILUPBiCGStab	1.42166670e-03	3.87806140e-09	1	true	DILUPBiCGStab	1.65741700e-04	3.94630530e-07	1	true	GAMG	1.19111280e-02	1.71923500e-06	1	true
0.0017          	DILUPBiCGStab	6.35308760e-03	1.48826100e-08	1	1.10418180e-02	2.63215880e-08	1	false	DILUPBiCGStab	1.64464960e-02	4.37250930e-08	1	true	DILUPBiCGStab	1.40454530e-03	3.70496350e-09	1	true	DILUPBiCGStab	1.65048710e-04	3.66067840e-07	1	true	GAMG	1.19741050e-02	1.68254850e-06	1	true
0.00172         	DILUPBiCGStab	6.46013670e-03	1.45758960e-08	1	1.09826230e-02	2.55516490e-08	1	false	DILUPBiCGStab	1.65129490e-02	4.23156900e-08	1	true	DILUPBiCGStab	1.39031600e-03	3.52969640e-09	1	true	DILUPBiCGStab	1.64437630e-04	3.40472170e-07	1	true	GAMG	1.20327080e-02	1.65745560e-06	1	true
0.00174         	DILUPBiCGStab	6.56673500e-03	1.41766960e-08	1	1.08989600e-02	2.46613780e-08	1	false	DILUPBiCGStab	1.66050300e-02	4.07977860e-08	1	true	DILUPBiCGStab	1.37570000e-03	3.34755030e-09	1	true	DILUPBiCGStab	1.63698020e-04	3.17528680e-07	1	true	GAMG	1.21165060e-02	1.62518110e-06	1	true
0.00176         	DILUPBiCGStab	6.67713460e-03	1.37391740e-08	1	1.08226990e-02	2.36722870e-08	1	false	DILUPBiCGStab	1.67102570e-02	3.93731370e-08	1	true	DILUPBiCGStab	1.36060510e-03	3.17152480e-09	1	true	DILUPBiCGStab	1.62948780e-04	2.95229890e-07	1	true	GAMG	1.21849230e-02	1.60272600e-06	1	true
0.00178         	DILUPBiCGStab	6.78533310e-03	1.32014950e-08	1	1.07694050e-02	2.27518790e-08	1	false	DILUPBiCGStab	1.67811110e-02	3.77822260e-08	1	true	DILUPBiCGStab	1.34515130e-03	3.00043940e-09	1	true	DILUPBiCGStab	1.62286020e-04	2.75478690e-07	1	true	GAMG	1.22337470e-02	1.59011130e-06	1	true
0.0018          	DILUPBiCGStab	6.89502340e-03	1.25799500e-08	1	1.07061640e-02	2.19658140e-08	1	false	DILUPBiCGStab	1.68416150e-02	3.60364600e-08	1	true	DILUPBiCGStab	1.33139310e-03	2.83143770e-09	1	true	DILUPBiCGStab	1.61704500e-04	2.58191580e-07	1	true	GAMG	1.22953320e-02	1.56684930e-06	1	true
0.00182         	DILUPBiCGStab	7.00574010e-03	1.20956520e-08	1	1.06376990e-02	2.11267220e-08	1	false	DILUPBiCGStab	1.69146180e-02	3.42568910e-08	1	true	DILUPBiCGStab	1.31836710e-03	2.66253520e-09	1	true	DILUPBiCGStab	1.61132950e-04	2.42750720e-07	1	true	GAMG	1.23637010e-02	1.54269410e-06	1	true
0.00184         	DILUPBiCGStab	7.11164510e-03	1.19127690e-08	1	1.05630280e-02	2.02237940e-08	1	false	DILUPBiCGStab	1.70063950e-02	3.24948800e-08	1	true	DILUPBiCGStab	1.30507790e-03	2.50073270e-09	1	true	DILUPBiCGStab	1.60465390e-04	2.28923880e-07	1	true	GAMG	1.24304570e-02	1.51797960e-06	1	true
0.00186         	DILUPBiCGStab	7.21972570e-03	1.17613510e-08	1	1.05080940e-02	1.93732860e-08	1	false	DILUPBiCGStab	1.70823480e-02	3.08464510e-08	1	true	DILUPBiCGStab	1.29094690e-03	2.35535550e-09	1	true	DILUPBiCGStab	1.59852590e-04	2.16718580e-07	1	true	GAMG	1.24834240e-02	1.49252960e-06	1	true
0.00188         	DILUPBiCGStab	7.32926740e-03	1.15613220e-08	1	1.04520020e-02	1.85833860e-08	1	false	DILUPBiCGStab	1.68601390e-02	2.87205370e-08	1	true	DILUPBiCGStab	1.27812110e-03	2.21592070e-09	1	true	DILUPBiCGStab	1.59323210e-04	2.05959900e-07	1	true	GAMG	1.25414140e-02	1.46304450e-06	1	true
0.0019          	DILUPBiCGStab	7.43685360e-03	1.15501690e-08	1	1.03814140e-02	1.78754300e-08	1	false	DILUPBiCGStab	1.65431660e-02	2.66875480e-08	1	true	DILUPBiCGStab	1.26610960e-03	2.08092100e-09	1	true	DILUPBiCGStab	1.58865330e-04	1.96448670e-07	1	true	GAMG	1.26153050e-02	1.42864340e-06	1	true
0.00192         	DILUPBiCGStab	7.54434330e-03	1.18009180e-08	1	1.03246130e-02	1.71984780e-08	1	false	DILUPBiCGStab	1.62546500e-02	2.49075130e-08	1	true	DILUPBiCGStab	1.25399470e-03	1.95769990e-09	1	true	DILUPBiCGStab	1.58293000e-04	1.87866220e-07	1	true	GAMG	1.26872510e-02	1.39155380e-06	1	true
0.00194         	DILUPBiCGStab	7.64857540e-03	1.21244940e-08	1	1.02665840e-02	1.65097130e-08	1	false	DILUPBiCGStab	1.59639890e-02	2.33121750e-08	1	true	DILUPBiCGStab	1.24173860e-03	1.84666910e-09	1	true	DILUPBiCGStab	1.57757260e-04	1.80237390e-07	1	true	GAMG	1.27463370e-02	1.35521580e-06	1	true
0.00196         	DILUPBiCGStab	7.75281300e-03	1.25449490e-08	1	1.02147450e-02	1.58336370e-08	1	false	DILUPBiCGStab	1.56769630e-02	2.21359590e-08	1	true	DILUPBiCGStab	1.22890200e-03	1.75141270e-09	1	true	DILUPBiCGStab	1.57269320e-04	1.73379620e-07	1	true	GAMG	1.28118530e-02	1.33185620e-06	1	true
0.00198         	DILUPBiCGStab	7.85939990e-03	1.29003180e-08	1	1.01491510e-02	1.52054490e-08	1	false	DILUPBiCGStab	1.54111290e-02	2.11441470e-08	1	true	DILUPBiCGStab	1.21733560e-03	1.66314340e-09	1	true	DILUPBiCGStab	1.56841790e-04	1.67233850e-07	1	true	GAMG	1.28836250e-02	1.31437130e-06	1	true