/*--------------------------------*- C++ -*----------------------------------*\
| =========                 |                                                 |
| \\      /  F ield         | OpenFOAM: The Open Source CFD Toolbox           |
|  \\    /   O peration     | Version:  2512                                  |
|   \\  /    A nd           | Website:  www.openfoam.com                      |
|    \\/     M anipulation  |                                                 |
\*---------------------------------------------------------------------------*/
FoamFile
{
    version     2.0;
    format      ascii;
    arch        "LSB;label=32;scalar=64";
    class       volScalarField;
    location    "0.147";
    object      alphat;
}
// * * * * * * * * * * * * * * * * * * * * * * * * * * * * * * * * * * * * * //

dimensions      [1 -1 -1 0 0 0 0];

internalField   nonuniform List<scalar> 
16000
(
6.1627568e-07
1.2046855e-05
2.1176064e-05
2.5079081e-05
2.0068806e-05
2.7277198e-05
1.9372744e-05
2.6658818e-05
2.0737685e-05
2.8821885e-05
2.4127403e-05
2.847771e-05
2.5871745e-05
2.6575191e-05
2.5646861e-05
2.5495866e-05
2.5221597e-05
2.5147614e-05
2.5161361e-05
2.5285219e-05
2.5511017e-05
2.5837505e-05
2.6262004e-05
2.6784651e-05
2.7407741e-05
2.8137885e-05
2.8983927e-05
2.9960013e-05
3.1083415e-05
3.2372785e-05
3.3848615e-05
3.5538132e-05
3.7476493e-05
3.9707042e-05
4.2283161e-05
4.5268611e-05
4.8739432e-05
5.2786389e-05
5.7521913e-05
6.3085457e-05
6.9640892e-05
7.7381349e-05
8.6550411e-05
9.7446669e-05
0.00011042582
0.00012591476
0.00014444306
0.00016665639
0.00019334146
0.00022545752
0.00026417919
0.00031094812
0.00036752789
0.00043608073
0.00051925791
0.00062032288
0.00074330496
0.00089319899
0.0010762353
0.0011787518
0.0011795838
0.0011803113
0.0011809423
0.0011814346
0.0011817839
0.0011819787
0.0011820119
0.0011818783
0.0011815679
0.0011810615
0.0011803253
0.0011792978
0.0011779341
0.001176471
0.0011751956
0.0011740327
0.0011729559
0.0011726967
0.0011715224
0.0011713376
5.2640691e-07
1.1385802e-05
2.1023114e-05
2.2767144e-05
1.8091206e-05
2.4432209e-05
1.7182916e-05
2.3312135e-05
1.831036e-05
2.5414919e-05
2.1830796e-05
2.5647312e-05
2.3641748e-05
2.4057001e-05
2.3332638e-05
2.3126348e-05
2.2899533e-05
2.2822147e-05
2.2838878e-05
2.2953466e-05
2.3163462e-05
2.3467196e-05
2.386259e-05
2.4349885e-05
2.4930813e-05
2.5611547e-05
2.639975e-05
2.7308166e-05
2.8353123e-05
2.9552805e-05
3.0926289e-05
3.2498469e-05
3.4301895e-05
3.6376718e-05
3.8772897e-05
4.1550397e-05
4.4781207e-05
4.8550647e-05
5.2963473e-05
5.8151725e-05
6.4272906e-05
7.1508924e-05
8.0089251e-05
9.0298645e-05
0.00010247883
0.00011703574
0.00013447469
0.00015541398
0.00018060862
0.00021097998
0.0002476567
0.00029202779
0.00034579488
0.00041104848
0.00049035465
0.00058687563
0.00070452101
0.0008481339
0.0010237391
0.0011782651
0.0011790962
0.0011797744
0.0011803661
0.0011808226
0.0011811392
0.0011813038
0.0011813086
0.001181148
0.0011808132
0.0011802856
0.0011795356
0.0011785083
0.0011771603
0.001175766
0.0011745531
0.0011734203
0.0011724446
0.001171966
0.0011713177
0.0011713548
4.6397593e-07
1.0882809e-05
1.9887661e-05
2.0774772e-05
1.6195726e-05
2.1518262e-05
1.5283851e-05
2.0242341e-05
1.6446363e-05
2.2263229e-05
1.9881407e-05
2.2801817e-05
2.1390783e-05
2.1516806e-05
2.0962203e-05
2.0735063e-05
2.054719e-05
2.0478157e-05
2.0500471e-05
2.0610829e-05
2.0808398e-05
2.1091931e-05
2.1459673e-05
2.1912197e-05
2.2450863e-05
2.3081645e-05
2.3811432e-05
2.4651802e-05
2.5617998e-05
2.6727759e-05
2.7999227e-05
2.9455465e-05
3.1126886e-05
3.3050901e-05
3.5274454e-05
3.7854041e-05
4.0858091e-05
4.4367682e-05
4.8481172e-05
5.3323252e-05
5.9046261e-05
6.5823542e-05
7.3872578e-05
8.3465339e-05
9.493255e-05
0.00010866331
0.00012514277
0.00014496646
0.00016886329
0.00019772412
0.00023263987
0.00027495642
0.00032632441
0.00038877551
0.00046480598
0.00055749426
0.00067065043
0.00080899939
0.00097841103
0.0011779328
0.0011787525
0.0011793662
0.0011799
0.0011803031
0.0011805703
0.0011806891
0.0011806506
0.0011804494
0.001180077
0.0011795154
0.0011787374
0.001177696
0.0011763516
0.0011750337
0.0011738873
0.0011728169
0.0011718918
0.0011713565
0.001170961
0.0011711463
4.1356675e-07
1.0507964e-05
1.8880513e-05
1.9905186e-05
1.4585867e-05
1.8996019e-05
1.3611834e-05
1.7671034e-05
1.4794058e-05
1.9594234e-05
1.8136445e-05
2.0293908e-05
1.9326367e-05
1.9242183e-05
1.8815091e-05
1.8589324e-05
1.8435216e-05
1.8379159e-05
1.8408981e-05
1.8517902e-05
1.8705899e-05
1.8972296e-05
1.9315727e-05
1.9737256e-05
2.0238037e-05
2.0824007e-05
2.1501556e-05
2.2281349e-05
2.3177602e-05
2.420769e-05
2.5389154e-05
2.6743503e-05
2.8299432e-05
3.0092013e-05
3.2165658e-05
3.4573903e-05
3.7382127e-05
4.0668126e-05
4.4525226e-05
4.907134e-05
5.4454917e-05
6.0842903e-05
6.8443269e-05
7.7516745e-05
8.8386274e-05
0.00010142816
0.00011711178
0.00013601522
0.00015884747
0.00018647732
0.00021996735
0.00026063227
0.00031008574
0.00037031803
0.00044377712
0.00053348399
0.00064318058
0.00077751373
0.00094225895
0.0011445907
0.0011786208
0.0011791535
0.0011796114
0.0011799443
0.0011801464
0.0011802046
0.0011801093
0.0011798543
0.0011794322
0.0011788251
0.0011780071
0.0011769423
0.0011755902
0.0011743437
0.001173262
0.0011722539
0.0011713576
0.001170784
0.0011705785
0.0011705886
3.6408212e-07
1.0236564e-05
1.8032446e-05
1.9960491e-05
1.4416758e-05
1.6797944e-05
1.2151058e-05
1.5472916e-05
1.337896e-05
1.7307614e-05
1.6595262e-05
1.804753e-05
1.741147e-05
1.7184918e-05
1.6851348e-05
1.664092e-05
1.6513467e-05
1.6469703e-05
1.6504597e-05
1.6610603e-05
1.6788056e-05
1.7037027e-05
1.7356571e-05
1.7748289e-05
1.8213279e-05
1.8757483e-05
1.9386925e-05
2.011154e-05
2.0944525e-05
2.1902846e-05
2.3003652e-05
2.4267178e-05
2.5720701e-05
2.7397294e-05
2.9339213e-05
3.1597443e-05
3.4234678e-05
3.7326099e-05
4.0961325e-05
4.5251887e-05
5.0343045e-05
5.6397058e-05
6.3614591e-05
7.2245941e-05
8.2608326e-05
9.5068269e-05
0.00011008235
0.00012821458
0.00015015775
0.00017676385
0.00020907262
0.00024837444
0.00029625351
0.00035466772
0.00042602766
0.00051330967
0.00062020276
0.00075129279
0.00091228332
0.0011102529
0.0011786626
0.0011791005
0.0011794662
0.0011797138
0.0011798364
0.0011798209
0.0011796565
0.0011793362
0.0011788534
0.0011781909
0.001177322
0.0011762248
0.0011748712
0.0011736928
0.0011726752
0.0011717283
0.0011708528
0.001170276
0.0011701946
0.0011699321
3.2888652e-07
1.0054132e-05
1.7351372e-05
1.9643238e-05
1.4184263e-05
1.4889374e-05
1.154418e-05
1.365887e-05
1.2618201e-05
1.5438232e-05
1.5255359e-05
1.6082043e-05
1.5665847e-05
1.5354441e-05
1.5079193e-05
1.4885825e-05
1.4775467e-05
1.473948e-05
1.4775768e-05
1.487696e-05
1.5043375e-05
1.5275681e-05
1.5573203e-05
1.5937817e-05
1.6370805e-05
1.6877996e-05
1.7465139e-05
1.8141617e-05
1.8919651e-05
1.9815778e-05
2.084696e-05
2.2032416e-05
2.339833e-05
2.4976143e-05
2.6806378e-05
2.8937957e-05
3.1431355e-05
3.4359747e-05
3.7810474e-05
4.1889649e-05
4.6739707e-05
5.2519991e-05
5.9426643e-05
6.7700625e-05
7.7655667e-05
8.9652032e-05
0.00010413699
0.00012166481
0.00014291649
0.00016873387
0.00020014081
0.00023841211
0.00028511275
0.00034218016
0.00041200266
0.00049752983
0.00060241885
0.00073121949
0.00088959649
0.0010845786
0.0011788719
0.0011792018
0.0011794609
0.0011796095
0.0011796398
0.0011795386
0.0011792941
0.0011788983
0.0011783449
0.0011776182
0.0011766893
0.0011755492
0.0011742083
0.0011730946
0.0011721392
0.0011712516
0.0011703985
0.0011698073
0.001169778
0.0011693853
2.8800083e-07
9.9449762e-06
1.6818965e-05
1.8521145e-05
1.4003228e-05
1.3146235e-05
1.1527234e-05
1.2570015e-05
1.2067596e-05
1.3719911e-05
1.4039576e-05
1.4342428e-05
1.4040323e-05
1.3693192e-05
1.3452264e-05
1.3277393e-05
1.3180859e-05
1.3152412e-05
1.3190649e-05
1.3288778e-05
1.3446702e-05
1.3665616e-05
1.3945103e-05
1.4202672e-05
1.4598526e-05
1.5065491e-05
1.5608638e-05
1.6236589e-05
1.69604e-05
1.7795821e-05
1.8759598e-05
1.9869976e-05
2.1152151e-05
2.2636024e-05
2.4360544e-05
2.6372769e-05
2.8731126e-05
3.1506839e-05
3.4785849e-05
3.8961756e-05
4.3619817e-05
4.9183638e-05
5.5847629e-05
6.3844836e-05
7.3486789e-05
8.5130897e-05
9.921851e-05
0.00011629806
0.0001370425
0.00016228967
0.00019305372
0.00023060179
0.00027648871
0.000332642
0.00040144078
0.00048582369
0.00058943453
0.00071680814
0.00087359692
0.0010668173
0.0011792268
0.0011794373
0.0011795776
0.0011796154
0.0011795425
0.0011793457
0.001179012
0.0011785321
0.0011778996
0.0011771017
0.001176107
0.0011749114
0.0011736102
0.0011725575
0.001171661
0.0011708318
0.0011700095
0.0011693981
0.0011693204
0.0011689052
2.656525e-07
9.881686e-06
1.6357539e-05
1.6794244e-05
1.254307e-05
1.1447605e-05
9.7168576e-06
1.1164308e-05
1.021225e-05
1.2360666e-05
1.2810127e-05
1.2741872e-05
1.2488857e-05
1.215283e-05
1.1941314e-05
1.1790525e-05
1.1710805e-05
1.1693274e-05
1.1665409e-05
1.1746533e-05
1.1887073e-05
1.2087312e-05
1.2345525e-05
1.2661553e-05
1.3040292e-05
1.3485435e-05
1.4002227e-05
1.4599252e-05
1.5287e-05
1.6080786e-05
1.6997625e-05
1.8055283e-05
1.9278535e-05
2.0696355e-05
2.2346824e-05
2.4275882e-05
2.6540781e-05
2.9211616e-05
3.2373951e-05
3.6132032e-05
4.0612978e-05
4.5977766e-05
5.2421179e-05
6.0677401e-05
7.0101378e-05
8.1505635e-05
9.5329392e-05
0.00011211908
0.00013254354
0.00015744318
0.00018782898
0.00022496879
0.00027041722
0.00032610323
0.0003944108
0.00047828482
0.00058137599
0.00070822775
0.00086450777
0.0010572591
0.0011797066
0.0011797882
0.0011797999
0.0011797177
0.0011795328
0.0011792321
0.001178802
0.0011782314
0.0011775131
0.0011766379
0.0011755765
0.0011743134
0.0011730844
0.0011720895
0.0011712479
0.0011704757
0.0011696928
0.0011690595
0.0011689194
0.0011684768
2.4151402e-07
9.840027e-06
1.586392e-05
1.4705894e-05
1.0275168e-05
1.01983e-05
8.0380199e-06
9.5886954e-06
9.759277e-06
1.1076918e-05
1.1574162e-05
1.1262253e-05
1.1034944e-05
1.0735137e-05
1.05523e-05
1.0354254e-05
1.0265334e-05
1.0243668e-05
1.0281912e-05
1.0376743e-05
1.0523042e-05
1.0724435e-05
1.097838e-05
1.1285659e-05
1.1651068e-05
1.2079193e-05
1.2575392e-05
1.3148323e-05
1.3808114e-05
1.4569644e-05
1.5450324e-05
1.6467707e-05
1.7646474e-05
1.9014986e-05
2.0610833e-05
2.247932e-05
2.4677052e-05
2.7273572e-05
3.0353923e-05
3.4021645e-05
3.8404488e-05
4.3661413e-05
4.9990675e-05
5.7622363e-05
6.6851324e-05
7.8044401e-05
9.2451902e-05
0.00010910797
0.00012939746
0.00015416965
0.00018443927
0.00022148331
0.00026686618
0.00032252992
0.00039087758
0.00047487795
0.00057820958
0.00070544869
0.00086230548
0.0010558864
0.0011802863
0.0011802319
0.0011801081
0.0011798989
0.0011795955
0.0011791851
0.0011786533
0.0011779876
0.0011771791
0.0011762208
0.0011750962
0.0011737814
0.0011726363
0.001171697
0.0011709058
0.0011701888
0.001169453
0.0011687977
0.0011685654
0.0011680623
2.164877e-07
9.7965652e-06
1.4040902e-05
1.2860254e-05
8.3071279e-06
9.078824e-06
7.2872483e-06
8.6364216e-06
9.0393825e-06
9.9113292e-06
1.035568e-05
9.9214078e-06
9.7039217e-06
9.3540879e-06
9.1623935e-06
9.0415143e-06
8.9884832e-06
8.9938279e-06
9.0501615e-06
9.1582675e-06
9.3121569e-06
9.514057e-06
9.7655836e-06
1.006684e-05
1.0422924e-05
1.0838908e-05
1.1320354e-05
1.1876148e-05
1.2516225e-05
1.3255072e-05
1.4110557e-05
1.5100353e-05
1.6249282e-05
1.7585378e-05
1.9146077e-05
2.0976488e-05
2.3133041e-05
2.5685325e-05
2.8718905e-05
3.2337996e-05
3.6670708e-05
4.187586e-05
4.8155681e-05
5.5740799e-05
6.4929246e-05
7.6090873e-05
8.9681752e-05
0.00010623753
0.00012759361
0.00015245975
0.00018287796
0.00022014266
0.00026583894
0.0003219341
0.00039086541
0.0004756442
0.00057999934
0.00070856646
0.00086712731
0.0010628871
0.0011809397
0.0011807446
0.0011804812
0.0011801409
0.0011797151
0.0011791912
0.0011785545
0.0011777914
0.001176891
0.0011758455
0.0011746585
0.0011733418
0.0011722705
0.001171385
0.0011706399
0.0011699753
0.0011692879
0.0011686101
0.0011682759
0.0011677623
1.9933782e-07
9.7459126e-06
1.1135927e-05
1.0575896e-05
6.8828235e-06
8.0866937e-06
6.6562205e-06
7.7647616e-06
8.4622703e-06
8.8502525e-06
9.1619568e-06
8.6115283e-06
8.3451656e-06
8.1022672e-06
7.9613031e-06
7.8822188e-06
7.8592386e-06
7.8888021e-06
7.9629921e-06
8.0812398e-06
8.2420671e-06
8.4472323e-06
8.6987666e-06
8.9974449e-06
9.348496e-06
9.7575222e-06
1.0230435e-05
1.0776414e-05
1.1405408e-05
1.2131575e-05
1.2906781e-05
1.3870627e-05
1.499204e-05
1.6298674e-05
1.7827783e-05
1.9624302e-05
2.1744564e-05
2.4258265e-05
2.7251631e-05
3.0829881e-05
3.5122649e-05
4.0606545e-05
4.6901692e-05
5.4518306e-05
6.3757776e-05
7.4994393e-05
8.8697769e-05
0.00010541688
0.00012584402
0.00015084229
0.00018313025
0.00022093565
0.00026732969
0.00032431782
0.00039438739
0.0004806123
0.00058679555
0.00071766123
0.00087909445
0.0010784333
0.0011816395
0.0011813014
0.0011808974
0.0011804245
0.0011798747
0.001179236
0.0011784934
0.0011776323
0.0011766411
0.0011755093
0.0011742516
0.0011729923
0.0011719902
0.0011711567
0.0011704544
0.001169838
0.0011691985
0.0011685048
0.0011680763
0.0011676519
1.8344063e-07
9.6977498e-06
8.796431e-06
9.0145422e-06
6.1699419e-06
7.1719113e-06
6.1161467e-06
7.0070692e-06
7.8759757e-06
7.8632373e-06
7.8674834e-06
7.3988007e-06
7.182189e-06
7.0045053e-06
6.9068534e-06
6.8630253e-06
6.8679269e-06
6.9168519e-06
7.0064612e-06
7.1365211e-06
7.30556e-06
7.5158038e-06
7.7702516e-06
8.0702207e-06
8.4210899e-06
8.7909688e-06
9.2540864e-06
9.7899411e-06
1.040835e-05
1.1123004e-05
1.1950372e-05
1.291186e-05
1.4031644e-05
1.5337526e-05
1.6867214e-05
1.8666247e-05
2.0791818e-05
2.3314755e-05
2.6323261e-05
2.9925067e-05
3.4253212e-05
3.9473956e-05
4.5791058e-05
5.3448936e-05
6.2754589e-05
7.4733695e-05
8.8679014e-05
0.00010571415
0.00012654473
0.00015206167
0.0001833537
0.00022385205
0.00027133571
0.00032968877
0.00040146539
0.00048982362
0.00059866625
0.00073283764
0.00089836298
0.0011027463
0.0011823584
0.0011818776
0.0011813348
0.0011807305
0.0011800575
0.0011793046
0.0011784573
0.0011774994
0.0011764196
0.0011752112
0.0011738823
0.0011727326
0.0011717962
0.0011710139
0.0011703522
0.001169778
0.0011691845
0.0011684943
0.0011680023
0.0011676388
1.6950507e-07
9.6261714e-06
7.0078412e-06
7.9312634e-06
5.5094302e-06
6.3548719e-06
5.6526823e-06
6.3352214e-06
7.1754618e-06
6.7424422e-06
6.699723e-06
6.3395738e-06
6.1689066e-06
6.0443333e-06
5.9840966e-06
5.9707528e-06
5.9996021e-06
6.068117e-06
6.1731607e-06
6.3154572e-06
6.4944898e-06
6.7126256e-06
6.9439314e-06
7.2429069e-06
7.5927272e-06
7.998373e-06
8.4680884e-06
9.0107099e-06
9.6362914e-06
1.0358758e-05
1.1194774e-05
1.2165535e-05
1.3296692e-05
1.4616539e-05
1.6163545e-05
1.7984279e-05
2.0137419e-05
2.269551e-05
2.574954e-05
2.9410924e-05
3.3816327e-05
3.9136077e-05
4.5584726e-05
5.3413254e-05
6.2938743e-05
7.4555622e-05
8.8753935e-05
0.00010612623
0.0001285244
0.00015478142
0.00018700099
0.00022657481
0.00027784532
0.00033804547
0.00041211141
0.00050330892
0.00061566832
0.00075418802
0.00092507711
0.001136042
0.0011830704
0.0011824496
0.0011817725
0.0011810404
0.0011802472
0.0011793828
0.0011784336
0.0011773828
0.0011762167
0.0011749456
0.0011736252
0.0011725594
0.0011716872
0.0011709559
0.001170335
0.0011697949
0.0011692379
0.0011685754
0.0011680711
0.0011677381
1.5731773e-07
9.4999808e-06
5.6366723e-06
6.9509396e-06
4.9179544e-06
5.6279589e-06
5.2611789e-06
5.6494848e-06
6.2923834e-06
5.7705077e-06
5.6772199e-06
5.4154084e-06
5.2879661e-06
5.2078465e-06
5.1808532e-06
5.1951041e-06
5.2466044e-06
5.3339356e-06
5.4550247e-06
5.5900818e-06
5.7748187e-06
5.9988565e-06
6.2649867e-06
6.5767857e-06
6.9393094e-06
7.3579381e-06
7.8408064e-06
8.3974454e-06
9.0381571e-06
9.7770711e-06
1.0631033e-05
1.1621562e-05
1.2717286e-05
1.4051212e-05
1.5615453e-05
1.7457585e-05
1.9638001e-05
2.223102e-05
2.5330459e-05
2.905199e-05
3.3537055e-05
3.9257074e-05
4.5896166e-05
5.3966894e-05
6.3797676e-05
7.5794784e-05
9.0472338e-05
0.0001084498
0.00013048598
0.00015896875
0.00019238533
0.00023344886
0.00028393712
0.00034936988
0.00042631932
0.000521078
0.00063783541
0.00078177823
0.00095935014
0.0011785092
0.001183751
0.0011829956
0.0011821909
0.0011813369
0.0011804286
0.0011794572
0.0011784102
0.0011772726
0.0011760287
0.0011746922
0.0011734599
0.0011724712
0.0011716595
0.0011709797
0.001170402
0.0011698885
0.0011693521
0.0011687403
0.0011682996
0.0011679805
1.465956e-07
9.284841e-06
4.6061113e-06
6.0758722e-06
4.3899674e-06
4.9836558e-06
4.9217492e-06
4.9034235e-06
5.4025725e-06
4.9064349e-06
4.7937026e-06
4.6129021e-06
4.5263063e-06
4.4845512e-06
4.4877982e-06
4.5277231e-06
4.6011836e-06
4.6889816e-06
4.8210564e-06
4.9882617e-06
5.1917867e-06
5.4335476e-06
5.7170635e-06
6.0460894e-06
6.4262802e-06
6.8632821e-06
7.3652948e-06
7.9185639e-06
8.5746487e-06
9.3299232e-06
1.0201338e-05
1.1210507e-05
1.238389e-05
1.375476e-05
1.5362854e-05
1.7257421e-05
1.9501721e-05
2.2173017e-05
2.5369024e-05
2.9211455e-05
3.3848455e-05
3.9466688e-05
4.629196e-05
5.4602474e-05
6.4741067e-05
7.7777222e-05
9.3056591e-05
0.00011178455
0.00013475801
0.00016296011
0.000199459
0.00024233588
0.00029507471
0.00035996393
0.00044404542
0.00054309666
0.00066514927
0.00081561346
0.0010012191
0.0011852354
0.0011843784
0.0011834967
0.0011825733
0.0011816052
0.0011805887
0.0011795163
0.0011783766
0.0011771577
0.0011758551
0.0011744998
0.0011733802
0.001172463
0.0011717079
0.0011710798
0.0011705488
0.0011700578
0.0011695237
0.0011689699
0.0011686627
0.0011683575
1.3727012e-07
8.9829093e-06
3.9593846e-06
5.2988777e-06
3.9210384e-06
4.4139202e-06
4.3826271e-06
4.2296988e-06
4.545184e-06
4.1444003e-06
4.0382773e-06
3.9220936e-06
3.8737899e-06
3.8661394e-06
3.8974741e-06
3.9474203e-06
4.0357381e-06
4.1579583e-06
4.3133957e-06
4.5025006e-06
4.7270955e-06
4.9896194e-06
5.2940154e-06
5.6443245e-06
6.0329723e-06
6.4886731e-06
7.009938e-06
7.6062888e-06
8.2897126e-06
9.0745146e-06
9.9781431e-06
1.1023159e-05
1.2237187e-05
1.3654857e-05
1.5318736e-05
1.7279998e-05
1.9605415e-05
2.2376036e-05
2.5693766e-05
2.9687751e-05
3.4512285e-05
4.0363696e-05
4.7482778e-05
5.6160545e-05
6.6759592e-05
7.9724894e-05
9.6453229e-05
0.00011607642
0.00014015802
0.00016974227
0.00020608744
0.0002531557
0.00030853035
0.00037668653
0.0004605893
0.00056925595
0.00069750253
0.00085559499
0.0010505909
0.0011859028
0.0011849342
0.0011839376
0.0011829055
0.0011818329
0.0011807164
0.0011795506
0.0011783257
0.0011770318
0.0011756805
0.0011744073
0.0011733773
0.0011725283
0.0011718263
0.0011712488
0.0011707667
0.0011702991
0.0011697571
0.0011692487
0.0011690748
0.0011688356
1.2937651e-07
8.1073314e-06
3.4922498e-06
4.6048345e-06
3.5058804e-06
3.744837e-06
3.9077667e-06
3.6126641e-06
3.768781e-06
3.4830764e-06
3.3998263e-06
3.3351257e-06
3.3221654e-06
3.345709e-06
3.3866487e-06
3.4702592e-06
3.5865748e-06
3.7344062e-06
3.9139948e-06
4.1265366e-06
4.374412e-06
4.6603366e-06
4.9791421e-06
5.3508461e-06
5.7746026e-06
6.2570876e-06
6.806344e-06
7.432263e-06
8.1471135e-06
8.9661467e-06
9.9074152e-06
1.09945e-05
1.2256345e-05
1.372939e-05
1.5392703e-05
1.7416123e-05
1.9817415e-05
2.2681992e-05
2.6273479e-05
3.0447308e-05
3.5494538e-05
4.1621091e-05
4.9084065e-05
5.8190424e-05
6.9321649e-05
8.2950082e-05
9.965533e-05
0.00012014888
0.00014660315
0.00017776711
0.0002160701
0.00026317137
0.00032415874
0.00039603604
0.00048453797
0.00059933523
0.00073465104
0.00090146348
0.0011071943
0.0011864792
0.0011854066
0.0011843066
0.0011831771
0.0011820109
0.0011808041
0.001179553
0.0011782518
0.0011768995
0.0011755312
0.0011743914
0.0011734444
0.0011726591
0.0011720079
0.0011714785
0.0011710433
0.0011706028
0.0011700602
0.0011695955
0.0011695507
0.0011695068
1.2316308e-07
5.9133434e-06
3.0941982e-06
3.9766254e-06
3.1477853e-06
3.1268656e-06
3.4333309e-06
3.053129e-06
3.1012357e-06
2.9185885e-06
2.8663543e-06
2.8442729e-06
2.8555636e-06
2.9001385e-06
2.98131e-06
3.0946418e-06
3.2380969e-06
3.4115488e-06
3.6160285e-06
3.8531918e-06
4.1198836e-06
4.4288636e-06
4.7803038e-06
5.1789572e-06
5.630517e-06
6.1419045e-06
6.7215535e-06
7.3797659e-06
8.1292281e-06
8.9661886e-06
9.94271e-06
1.10687e-05
1.2374337e-05
1.3897436e-05
1.5685282e-05
1.7796985e-05
2.030561e-05
2.3302602e-05
2.6901394e-05
3.124211e-05
3.6498704e-05
4.3194241e-05
5.1045631e-05
6.0636122e-05
7.236735e-05
8.6738665e-05
0.00010436438
0.0001260009
0.00015397894
0.00018690245
0.00022738478
0.00027717836
0.00034173822
0.00041775257
0.00051137583
0.00062672615
0.00077616923
0.00095273736
0.0011704938
0.0011869579
0.0011857886
0.0011845969
0.0011833811
0.0011821333
0.0011808473
0.0011795206
0.0011781524
0.0011767574
0.0011754811
0.0011744398
0.001173572
0.0011728464
0.001172245
0.0011717608
0.0011713653
0.0011709535
0.0011704339
0.0011700308
0.0011700989
0.0011701613
1.1829133e-07
4.4250643e-06
2.7379452e-06
3.3954216e-06
2.691083e-06
2.6074919e-06
2.9326821e-06
2.5547488e-06
2.5463992e-06
2.4449841e-06
2.4278079e-06
2.4352121e-06
2.4793098e-06
2.5596553e-06
2.6717456e-06
2.8129855e-06
2.9826472e-06
3.181339e-06
3.407485e-06
3.6681153e-06
3.9644285e-06
4.2997598e-06
4.6781766e-06
5.1046361e-06
5.5851279e-06
6.1268826e-06
6.7386896e-06
7.4201499e-06
8.2024055e-06
9.0941528e-06
1.0115804e-05
1.1292718e-05
1.2656856e-05
1.4248354e-05
1.6117514e-05
1.8327015e-05
2.0954738e-05
2.4097556e-05
2.7875962e-05
3.2439432e-05
3.7973151e-05
4.4705418e-05
5.3312224e-05
6.343317e-05
7.5821689e-05
9.1006211e-05
0.00010963743
0.00013251811
0.00016063833
0.00019697012
0.00023982
0.0002925415
0.00035743962
0.00044146345
0.00054065311
0.00066289087
0.00082140727
0.0010086514
0.0011885994
0.0011873364
0.0011860793
0.0011848067
0.0011835149
0.0011821971
0.0011808446
0.0011794541
0.0011780387
0.0011766428
0.0011754965
0.0011745445
0.0011737496
0.0011730804
0.0011725279
0.0011720873
0.0011717221
0.0011713337
0.0011708573
0.0011705321
0.0011706802
0.0011707767
1.1313893e-07
3.9397001e-06
2.3588393e-06
2.8578679e-06
2.3185578e-06
2.1728512e-06
2.4159753e-06
2.1190394e-06
2.0978361e-06
2.0590027e-06
2.072533e-06
2.1159562e-06
2.1971931e-06
2.3091315e-06
2.4490729e-06
2.6160184e-06
2.8102522e-06
3.0307776e-06
3.2831772e-06
3.5687582e-06
3.8904852e-06
4.2519595e-06
4.6574958e-06
5.1122563e-06
5.6224497e-06
6.195582e-06
6.8332141e-06
7.5583757e-06
8.3797542e-06
9.3144613e-06
1.0384028e-05
1.1615334e-05
1.3042186e-05
1.4707077e-05
1.6663475e-05
1.8978302e-05
2.1734613e-05
2.503531e-05
2.9008335e-05
3.3811786e-05
3.9641873e-05
4.7079426e-05
5.5819019e-05
6.6505426e-05
7.9594381e-05
9.5644857e-05
0.00011534566
0.00013954647
0.00017086401
0.00020773898
0.00025309516
0.00030891672
0.00037764932
0.00046666142
0.0005717622
0.00070132554
0.000869443
0.0010680844
0.0011889462
0.0011876154
0.0011862825
0.0011849395
0.0011835809
0.0011822024
0.0011807972
0.0011793571
0.0011779048
0.0011766202
0.0011755644
0.0011746925
0.0011739656
0.0011733516
0.0011728447
0.0011724475
0.0011721068
0.0011717348
0.0011713067
0.0011710729
0.001171289
0.0011713873
1.0970934e-07
3.4299052e-06
2.0333546e-06
2.3112161e-06
2.0134885e-06
1.8020788e-06
1.937527e-06
1.7520231e-06
1.7482602e-06
1.7594758e-06
1.8041681e-06
1.8861377e-06
1.9985976e-06
2.137507e-06
2.3017955e-06
2.4917059e-06
2.7071487e-06
2.9517925e-06
3.2274735e-06
3.5369155e-06
3.8833807e-06
4.2706899e-06
4.703326e-06
5.1866014e-06
5.7268949e-06
6.3276382e-06
7.0047127e-06
7.7669419e-06
8.6286265e-06
9.6077192e-06
1.0727012e-05
1.2014983e-05
1.3507475e-05
1.524948e-05
1.729756e-05
1.9722821e-05
2.2614115e-05
2.6080477e-05
3.0258025e-05
3.5314285e-05
4.1729597e-05
4.9275081e-05
5.8488685e-05
6.9762399e-05
8.3576862e-05
0.00010052422
0.00012133298
0.00014690235
0.00017994837
0.00021891239
0.00026685347
0.00032587157
0.00039856286
0.00049267042
0.00060388348
0.00074103676
0.00091904291
0.0011295303
0.0011891962
0.0011878036
0.0011864061
0.0011850034
0.0011835875
0.0011821543
0.0011807052
0.0011792493
0.0011778214
0.001176655
0.0011756789
0.0011748719
0.0011742053
0.001173651
0.0011731829
0.0011728268
0.0011725094
0.0011721541
0.0011717758
0.0011716314
0.0011718969
0.0011719741
1.0827139e-07
2.8979104e-06
1.7521762e-06
1.7849022e-06
1.7351346e-06
1.4864408e-06
1.5481592e-06
1.4613737e-06
1.4895619e-06
1.5364163e-06
1.6199598e-06
1.7323022e-06
1.8698934e-06
2.0311431e-06
2.2163308e-06
2.426626e-06
2.6630028e-06
2.9289831e-06
3.226701e-06
3.5591476e-06
3.9297591e-06
4.3424993e-06
4.8019755e-06
5.3136198e-06
5.8839395e-06
6.5208583e-06
7.2341571e-06
8.0360056e-06
8.9313644e-06
9.9554197e-06
1.1125189e-05
1.2470846e-05
1.4030409e-05
1.5851594e-05
1.7994108e-05
2.0616227e-05
2.3668264e-05
2.7330959e-05
3.1749326e-05
3.7102201e-05
4.3609798e-05
5.1542882e-05
6.123594e-05
7.3100719e-05
8.7644406e-05
0.00010549224
0.00012741376
0.00015570601
0.00018908324
0.00023013592
0.00028065918
0.00034287153
0.00042348889
0.00051865516
0.00063599379
0.00078077503
0.00096864409
0.0011908493
0.001189365
0.0011879158
0.0011864625
0.0011850088
0.0011835473
0.0011820701
0.001180575
0.0011790952
0.0011778102
0.0011767331
0.0011758318
0.0011750777
0.001174454
0.0011739642
0.0011735322
0.0011732101
0.0011729162
0.0011725854
0.0011722626
0.0011721926
0.001172482
0.0011725257
1.0989337e-07
2.3670041e-06
1.5184798e-06
1.3808018e-06
1.4545336e-06
1.223025e-06
1.26385e-06
1.2490596e-06
1.3102929e-06
1.3914677e-06
1.5031676e-06
1.6384342e-06
1.795955e-06
1.9758605e-06
2.1793754e-06
2.4082493e-06
2.6642553e-06
2.9504302e-06
3.2693178e-06
3.6240411e-06
4.0181381e-06
4.4556654e-06
4.9413315e-06
5.4806885e-06
6.080395e-06
6.7485736e-06
7.4952862e-06
8.3331289e-06
9.2779707e-06
1.0349888e-05
1.1574262e-05
1.2983239e-05
1.4617316e-05
1.6527403e-05
1.8777205e-05
2.1446161e-05
2.4633078e-05
2.8460837e-05
3.3081433e-05
3.8682952e-05
4.5497633e-05
5.381109e-05
6.3972565e-05
7.6414699e-05
9.1668958e-05
0.00011130447
0.00013447432
0.00016294324
0.00019794741
0.00024101426
0.00029402936
0.00036269732
0.00044374899
0.00054366061
0.00066691355
0.00082703465
0.0010164
0.0011909899
0.0011894701
0.0011879717
0.0011864712
0.0011849705
0.0011834682
0.0011819646
0.0011804648
0.0011790086
0.0011778322
0.0011768393
0.0011760088
0.0011753106
0.0011747308
0.0011742538
0.0011738832
0.0011735853
0.0011733135
0.0011730157
0.001172755
0.0011727428
0.0011730283
0.0011730442
1.1579293e-07
1.8726859e-06
1.3308872e-06
1.0863571e-06
1.3014956e-06
1.0035442e-06
1.0707308e-06
1.1081354e-06
1.195878e-06
1.3041888e-06
1.436285e-06
1.5891351e-06
1.7631458e-06
1.9594576e-06
2.1797858e-06
2.4261385e-06
2.7008012e-06
3.0061442e-06
3.3452714e-06
3.7212754e-06
4.1377693e-06
4.5988943e-06
5.1094623e-06
5.6751547e-06
6.3027974e-06
7.0007308e-06
7.7793096e-06
8.6515828e-06
9.6340418e-06
1.0747643e-05
1.2018907e-05
1.3481507e-05
1.5177907e-05
1.7161511e-05
1.9499166e-05
2.227425e-05
2.5590365e-05
2.9575887e-05
3.4389525e-05
4.0227181e-05
4.7653558e-05
5.6390723e-05
6.7069305e-05
8.0142982e-05
9.6169395e-05
0.0001158355
0.00013998835
0.0001696728
0.00020617473
0.00025343613
0.00030914804
0.00037775467
0.00046229956
0.00056656253
0.00070202619
0.00086214706
0.0010600509
0.001191073
0.0011895225
0.001187989
0.0011864548
0.0011849173
0.0011833735
0.0011818283
0.0011803159
0.0011789896
0.0011778837
0.0011769594
0.0011761861
0.001175536
0.0011750078
0.0011745594
0.0011742198
0.0011739441
0.0011736902
0.0011734283
0.001173232
0.0011732717
0.0011735405
0.0011735153
1.2670263e-07
1.4980712e-06
1.1723037e-06
9.4000233e-07
9.5438554e-07
8.7976462e-07
9.4223924e-07
1.0218737e-06
1.1297886e-06
1.2570633e-06
1.4045118e-06
1.5719343e-06
1.7605558e-06
1.9718984e-06
2.2078195e-06
2.4703923e-06
2.7619377e-06
3.0850429e-06
3.4426084e-06
3.8379013e-06
4.2746334e-06
4.7570678e-06
5.2901677e-06
5.8798088e-06
6.5330742e-06
7.2560633e-06
8.0632624e-06
8.9665207e-06
9.991874e-06
1.1147158e-05
1.246622e-05
1.3984397e-05
1.5746213e-05
1.7807588e-05
2.0238456e-05
2.3125927e-05
2.6578143e-05
3.0729003e-05
3.574392e-05
4.1826955e-05
4.9229598e-05
5.826161e-05
6.9304187e-05
8.2824357e-05
9.9399377e-05
0.00011973949
0.00014600862
0.00017694769
0.00021498282
0.00026177472
0.00031937702
0.00039033676
0.00047781378
0.0005913036
0.00072552792
0.00089137514
0.0010965173
0.0011911231
0.0011895432
0.0011879801
0.0011864225
0.0011848668
0.0011833097
0.0011817565
0.0011802518
0.0011790143
0.0011779694
0.001177097
0.0011763678
0.0011757595
0.0011752833
0.0011748494
0.0011745339
0.0011742791
0.0011740403
0.0011738127
0.0011736712
0.0011737479
0.001173998
0.001173954
1.4860533e-07
1.5075795e-06
1.0118889e-06
7.1797403e-07
7.7890015e-07
7.8589017e-07
8.6960036e-07
9.7162017e-07
1.0956102e-06
1.2373366e-06
1.3979755e-06
1.5784334e-06
1.7802112e-06
2.0049419e-06
2.2545112e-06
2.5310215e-06
2.8368272e-06
3.1745647e-06
3.5471951e-06
3.9580571e-06
4.4109398e-06
4.9101868e-06
5.4608445e-06
6.0688756e-06
6.7414607e-06
7.4874122e-06
8.3177224e-06
9.2462638e-06
1.0290677e-05
1.147343e-05
1.2823083e-05
1.4375884e-05
1.6177562e-05
1.8285568e-05
2.077172e-05
2.3725431e-05
2.7257642e-05
3.1505581e-05
3.6638622e-05
4.286548e-05
5.0443193e-05
6.0115797e-05
7.1505645e-05
8.5446406e-05
0.00010253229
0.00012349403
0.0001492333
0.00018086328
0.00021975961
0.00026762201
0.0003265602
0.00040287521
0.00049309009
0.00060440666
0.00074190249
0.00091192495
0.0011224121
0.0011911844
0.0011895737
0.0011879782
0.0011863917
0.0011848116
0.0011832383
0.0011816891
0.0011802565
0.0011790782
0.0011780841
0.0011772535
0.0011765597
0.0011759849
0.0011755123
0.0011751317
0.0011748153
0.0011745844
0.0011743617
0.0011741657
0.0011740604
0.0011741405
0.0011743505
0.001174316
1.4492819e-07
9.2220167e-07
8.2852066e-07
6.1118741e-07
6.6859284e-07
7.2888103e-07
8.308282e-07
9.4941115e-07
1.0862979e-06
1.2404777e-06
1.4132026e-06
1.605666e-06
1.8193972e-06
2.0560979e-06
2.3176947e-06
2.6063477e-06
2.9244787e-06
3.2747598e-06
3.6602888e-06
4.0844631e-06
4.5511553e-06
5.0647938e-06
5.630512e-06
6.2543633e-06
6.9436287e-06
7.707238e-06
8.5563288e-06
9.5049692e-06
1.0579697e-05
1.1789956e-05
1.317083e-05
1.4759492e-05
1.6602766e-05
1.8759429e-05
2.1302886e-05
2.432447e-05
2.7937426e-05
3.2281794e-05
3.7530397e-05
4.3896196e-05
5.1641296e-05
6.1087962e-05
7.263216e-05
8.6762459e-05
0.00010407974
0.00012532503
0.00015141277
0.00018508273
0.00022479949
0.00027366216
0.00033382669
0.00040796712
0.00049941086
0.00061230655