/*--------------------------------*- C++ -*----------------------------------*\
| =========                 |                                                 |
| \\      /  F ield         | OpenFOAM: The Open Source CFD Toolbox           |
|  \\    /   O peration     | Version:  2512                                  |
|   \\  /    A nd           | Website:  www.openfoam.com                      |
|    \\/     M anipulation  |                                                 |
\*---------------------------------------------------------------------------*/
FoamFile
{
    version     2.0;
    format      ascii;
    arch        "LSB;label=32;scalar=64";
    class       volScalarField;
    location    "0.147";
    object      k;
}
// * * * * * * * * * * * * * * * * * * * * * * * * * * * * * * * * * * * * * //

dimensions      [0 2 -2 0 0 0 0];

internalField   nonuniform List<scalar> 
16000
(
0.061585298
0.021388809
0.022399855
0.016518299
0.013992613
0.012669693
0.01188057
0.011407205
0.011090566
0.010875645
0.010717216
0.010599223
0.010507018
0.01043401
0.010375246
0.010327778
0.010288972
0.010257089
0.010231112
0.010209634
0.01019222
0.010177929
0.010166464
0.010157339
0.010150209
0.010144785
0.010140872
0.010138294
0.010136914
0.010136599
0.010137225
0.01013869
0.010140909
0.010143814
0.010147343
0.010151437
0.01015604
0.010161092
0.010166537
0.01017232
0.01017838
0.010184647
0.010191057
0.010197544
0.010204034
0.010210454
0.010216743
0.010222854
0.010228744
0.010234374
0.010239708
0.010244703
0.010249316
0.010253501
0.010257214
0.010260416
0.010263066
0.010265117
0.010266518
0.01026721
0.010267114
0.010266132
0.010264158
0.010261055
0.010256652
0.01025079
0.010243349
0.010234243
0.010223331
0.010210349
0.01019481
0.010175791
0.010152612
0.010128959
0.010109402
0.010092881
0.010079261
0.010083121
0.010064326
0.010087651
0.054236714
0.02003174
0.020942524
0.015970512
0.01365014
0.012469631
0.01171939
0.011295184
0.010990564
0.010793116
0.010644669
0.010535408
0.010449578
0.010382031
0.010327711
0.010284086
0.010248639
0.010219613
0.010196257
0.010177057
0.010161767
0.010149386
0.010139686
0.010132206
0.010126623
0.010122645
0.010120087
0.010118781
0.010118592
0.010119399
0.010121079
0.01012353
0.010126667
0.010130418
0.010134722
0.010139521
0.010144757
0.010150373
0.010156312
0.010162521
0.01016894
0.010175503
0.010182149
0.010188813
0.010195427
0.01020192
0.01020823
0.01021431
0.010220122
0.01022563
0.010230803
0.010235606
0.01024
0.010243944
0.010247398
0.010250326
0.01025269
0.01025445
0.010255554
0.010255949
0.010255566
0.010254313
0.010252094
0.010248778
0.010244195
0.010238174
0.010230583
0.01022133
0.010210286
0.010197203
0.010181662
0.010162849
0.010140112
0.010117702
0.010099231
0.010083308
0.010071815
0.010070559
0.010063439
0.010087736
0.049227232
0.019067087
0.019605463
0.015409856
0.013299549
0.012244089
0.011552142
0.011169195
0.01088856
0.010709186
0.010571846
0.01047175
0.010392792
0.010331003
0.010281448
0.010241896
0.010210044
0.010184067
0.010163512
0.010146747
0.01013372
0.010123379
0.010115558
0.010109823
0.010105875
0.010103426
0.0101023
0.010102335
0.0101034
0.010105381
0.01010816
0.010111634
0.010115717
0.010120336
0.010125429
0.010130935
0.010136798
0.01014296
0.010149365
0.010155959
0.010162686
0.010169483
0.01017629
0.010183047
0.01018969
0.010196152
0.010202374
0.01020831
0.010213926
0.010219191
0.010224079
0.010228562
0.010232608
0.010236181
0.010239246
0.01024177
0.010243722
0.010245062
0.010245745
0.010245718
0.010244919
0.010243267
0.01024067
0.010237007
0.010232113
0.010225811
0.010217953
0.010208442
0.010197159
0.01018386
0.010168172
0.010149412
0.010126983
0.010105969
0.010088674
0.010073921
0.010063493
0.010060385
0.010060061
0.010083398
0.045051357
0.018413795
0.01846783
0.014907117
0.012982349
0.012040606
0.011399408
0.011055202
0.010795089
0.010632145
0.010505398
0.010413769
0.010341368
0.010285028
0.010240024
0.010204354
0.010175974
0.010152922
0.010135089
0.01012068
0.010109857
0.010101508
0.010095529
0.010091499
0.010089154
0.010088206
0.010088484
0.010089832
0.010092122
0.010095244
0.010099085
0.010103539
0.01010852
0.010113952
0.010119769
0.010125912
0.010132322
0.010138943
0.010145719
0.010152595
0.010159521
0.010166436
0.010173284
0.010180008
0.010186552
0.010192854
0.010198858
0.01020452
0.010209811
0.010214706
0.010219185
0.010223228
0.010226809
0.010229898
0.010232466
0.010234483
0.01023592
0.010236746
0.010236915
0.01023638
0.010235081
0.010232945
0.01022989
0.010225801
0.010220521
0.010213868
0.010205679
0.010195849
0.010184267
0.010170696
0.010154787
0.010136037
0.01011384
0.010094232
0.01007819
0.010064692
0.010054856
0.010051105
0.010055223
0.010073525
0.040652303
0.018024278
0.017534251
0.014441964
0.012686832
0.011848284
0.011256178
0.010947666
0.010707965
0.010560424
0.010444076
0.010360522
0.010294541
0.010243493
0.010202956
0.010171074
0.010146132
0.010125956
0.010110832
0.010098763
0.010090141
0.01008379
0.010079667
0.010077345
0.010076605
0.010077164
0.010078849
0.010081511
0.01008502
0.010089269
0.010094148
0.010099551
0.010105388
0.01011158
0.01011806
0.010124765
0.010131637
0.010138622
0.010145662
0.010152707
0.010159708
0.010166611
0.010173363
0.010179914
0.010186216
0.010192212
0.010197852
0.010203097
0.010207922
0.01021231
0.010216245
0.010219717
0.010222706
0.010225189
0.010227142
0.010228539
0.010229356
0.010229562
0.01022912
0.01022798
0.010226088
0.010223378
0.010219775
0.010215173
0.010209421
0.010202337
0.010193746
0.010183527
0.010171579
0.010157673
0.010141459
0.010122656
0.010100854
0.010082666
0.010067937
0.010055686
0.010046359
0.010042677
0.010049786
0.010061899
0.037582902
0.017862876
0.016831651
0.014015719
0.012415203
0.011669404
0.011123862
0.010848108
0.010628031
0.010494673
0.010388424
0.010312482
0.010252714
0.01020677
0.010170583
0.010142377
0.010120823
0.010103472
0.010091035
0.010081303
0.010074869
0.010070527
0.010068298
0.010067672
0.010068523
0.010070588
0.010073673
0.010077634
0.01008234
0.010087682
0.010093553
0.010099846
0.010106467
0.010113335
0.010120381
0.010127539
0.010134754
0.010141971
0.010149136
0.010156202
0.010163123
0.010169854
0.010176349
0.010182564
0.010188459
0.010193989
0.010199109
0.010203785
0.010207999
0.010211738
0.010214997
0.01021777
0.010220046
0.01022181
0.01022304
0.010223716
0.010223815
0.010223313
0.010222173
0.010220348
0.010217785
0.010214424
0.010210198
0.010205008
0.010198713
0.010191132
0.01018208
0.010171416
0.010159045
0.010144762
0.010128185
0.010109241
0.010088117
0.010071362
0.010057989
0.010046972
0.010038221
0.010034739
0.010043268
0.010051756
0.033640257
0.017874419
0.016332493
0.013624611
0.012164839
0.011503262
0.011002111
0.010756261
0.010555115
0.010434764
0.010338296
0.010269589
0.010215862
0.01017489
0.010142989
0.010118393
0.01010022
0.010085687
0.010075929
0.010068594
0.01006433
0.010062058
0.010061872
0.010062879
0.010065264
0.010068829
0.010073307
0.010078545
0.01008441
0.010090794
0.010097589
0.010104688
0.010111994
0.010119424
0.010126906
0.010134376
0.010141779
0.010149063
0.010156181
0.010163088
0.010169748
0.010176123
0.010182176
0.010187872
0.010193183
0.010198072
0.010202506
0.010206456
0.010209908
0.01021286
0.010215309
0.01021726
0.010218708
0.010219644
0.010220051
0.010219912
0.010219206
0.010217912
0.010215996
0.010213412
0.010210109
0.01020603
0.010201113
0.01019527
0.010188367
0.01018023
0.010170663
0.010159506
0.010146661
0.010131966
0.010115003
0.010095782
0.010075802
0.010060481
0.010048468
0.010038674
0.010030624
0.010027432
0.010035607
0.01004195
0.031686363
0.017987633
0.015911127
0.013266358
0.011934103
0.011349696
0.010890368
0.010672026
0.010488863
0.010380638
0.010293693
0.010231956
0.010184151
0.010148076
0.010120439
0.010099424
0.010084628
0.010072961
0.01006581
0.010061087
0.01005885
0.010058865
0.010060131
0.010063097
0.010067204
0.010072254
0.01007809
0.010084555
0.010091514
0.010098854
0.010106467
0.010114246
0.010122094
0.010129926
0.01013767
0.010145265
0.010152658
0.010159804
0.010166663
0.010173199
0.010179384
0.010185192
0.010190599
0.010195579
0.010200115
0.010204185
0.010207763
0.01021083
0.010213377
0.010215407
0.010216926
0.010217941
0.010218457
0.01021847
0.010217967
0.010216933
0.010215349
0.010213195
0.010210439
0.010207037
0.010202936
0.010198084
0.010192423
0.010185872
0.010178309
0.010169564
0.01015944
0.010147756
0.010134397
0.010119252
0.010101943
0.010082309
0.01006401
0.010050121
0.010039449
0.010030868
0.010023625
0.010020748
0.010028228
0.010032878
0.029386431
0.018138909
0.015390491
0.012937856
0.011721714
0.011207853
0.010788172
0.010594958
0.010429615
0.010332685
0.010254966
0.010199977
0.010157978
0.010126739
0.010103357
0.010085918
0.010074414
0.01006578
0.010060866
0.010058936
0.010057452
0.01006096
0.010064408
0.01006907
0.010074752
0.010081248
0.010088376
0.010095982
0.010103923
0.010112084
0.010120358
0.01012864
0.010136832
0.010144852
0.01015263
0.010160112
0.010167251
0.010174011
0.010180363
0.010186284
0.010191756
0.010196768
0.01020131
0.010205369
0.010208939
0.010212011
0.010214572
0.010216608
0.010218117
0.010219106
0.010219586
0.010219569
0.010219066
0.010218077
0.010216593
0.0102146
0.010212079
0.010209011
0.010205365
0.010201099
0.010196159
0.010190491
0.010184044
0.010176744
0.010168477
0.010159086
0.010148371
0.010136137
0.010122238
0.010106598
0.010089035
0.010069261
0.010052846
0.010040386
0.010031012
0.01002363
0.010017314
0.010014685
0.010020987
0.010024129
0.026846756
0.018267562
0.014718934
0.01263646
0.011527886
0.011078676
0.010696849
0.010526009
0.010377932
0.010291342
0.010222536
0.010174115
0.010137814
0.010111365
0.010092236
0.010078427
0.010069776
0.010064739
0.010060501
0.01006319
0.010065753
0.010069383
0.010074711
0.010081098
0.010088318
0.010096168
0.010104472
0.010113071
0.010121822
0.010130605
0.010139315
0.010147852
0.010156125
0.010164054
0.01017158
0.010178656
0.01018525
0.010191336
0.010196902
0.010201939
0.010206446
0.010210425
0.010213881
0.010216817
0.010219239
0.010221149
0.010222546
0.010223422
0.01022378
0.010223629
0.010222984
0.01022186
0.010220271
0.010218222
0.010215706
0.010212708
0.01020921
0.010205191
0.010200623
0.010195461
0.010189653
0.010183144
0.010175884
0.010167805
0.010158805
0.010148736
0.010137406
0.010124608
0.01011017
0.010093996
0.01007621
0.010057072
0.010042401
0.010031354
0.01002322
0.010017004
0.010011723
0.010009343
0.010014166
0.010016097
0.025170413
0.018354461
0.014169222
0.012360546
0.011353313
0.010961804
0.010616405
0.010465435
0.010333837
0.010256984
0.010196805
0.010154844
0.010124171
0.010102499
0.010087619
0.010077637
0.010070026
0.010070542
0.010071503
0.010073799
0.010078366
0.010084471
0.010091625
0.010099633
0.010108263
0.01011731
0.010126597
0.010135963
0.010145266
0.010154388
0.010163225
0.01017169
0.010179703
0.010187195
0.010194123
0.010200453
0.010206171
0.010211269
0.010215752
0.010219629
0.010222917
0.010225634
0.010227799
0.01022943
0.010230542
0.010231151
0.010231262
0.010230876
0.010229997
0.010228635
0.010226805
0.010224525
0.010221808
0.010218663
0.010215084
0.010211057
0.01020656
0.010201572
0.010196063
0.010189992
0.010183304
0.01017594
0.010167853
0.01015898
0.010149228
0.010138463
0.010126502
0.010113132
0.010098176
0.010081488
0.010063355
0.010045759
0.010032758
0.010023093
0.010016129
0.010011019
0.010006836
0.010004775
0.010008051
0.010009528
0.023561006
0.018428922
0.013676151
0.012110236
0.011197864
0.01085708
0.010546306
0.010413514
0.010297772
0.010230108
0.010178294
0.01014274
0.010117657
0.010100786
0.010090131
0.010084408
0.01008275
0.010083137
0.01008647
0.010091895
0.010098716
0.010106691
0.010115555
0.010125017
0.010134846
0.010144833
0.010154806
0.010164608
0.0101741
0.010183173
0.010191735
0.010199716
0.010207053
0.010213702
0.010219637
0.010224848
0.010229339
0.010233127
0.010236234
0.01023869
0.010240527
0.010241779
0.010242478
0.010242654
0.010242332
0.010241535
0.010240275
0.010238559
0.01023639
0.010233777
0.010230733
0.010227274
0.010223415
0.010219161
0.010214512
0.01020945
0.010203952
0.010197993
0.010191544
0.010184563
0.010176995
0.01016878
0.010159866
0.010150197
0.010139687
0.010128217
0.010115619
0.010101677
0.010086218
0.010069153
0.01005065
0.010035377
0.010023975
0.010015648
0.010009783
0.010005688
0.010002601
0.010001019
0.010003015
0.010003945
0.022131819
0.018429422
0.013260425
0.011884692
0.011060686
0.010764927
0.010487193
0.010370835
0.010270055
0.010211268
0.010167618
0.010138479
0.010118994
0.010106978
0.010100613
0.010098549
0.010099835
0.010103998
0.010110112
0.010117801
0.010126714
0.010136488
0.010146819
0.010157443
0.010168128
0.010178668
0.010188897
0.010198672
0.01020787
0.010216399
0.01022419
0.010231197
0.010237389
0.010242748
0.010247277
0.01025099
0.010253917
0.010256094
0.010257565
0.010258375
0.010258572
0.010258201
0.010257307
0.010255926
0.01025409
0.010251826
0.010249152
0.010246076
0.0102426
0.010238729
0.010234472
0.01022984
0.010224847
0.010219497
0.010213789
0.010207707
0.010201223
0.01019431
0.010186936
0.010179059
0.010170627
0.010161574
0.010151848
0.010141392
0.01013013
0.010117956
0.010104724
0.010090225
0.010074265
0.010057002
0.010039319
0.010025944
0.010016086
0.010009042
0.010004217
0.010001022
0.0099989417
0.009998031
0.0099991939
0.0099994185
0.020864979
0.018260642
0.012874757
0.011682481
0.010940743
0.010685029
0.010439178
0.010337565
0.010251259
0.010201189
0.010165576
0.010142899
0.010129051
0.01012194
0.010119909
0.010121736
0.010126507
0.010133499
0.010142204
0.010152131
0.010162871
0.01017409
0.010185494
0.010196821
0.010207849
0.010218389
0.010228291
0.010237439
0.010245741
0.010253137
0.010259591
0.010265094
0.01026965
0.010273278
0.010276008
0.010277881
0.010278951
0.010279273
0.010278906
0.010277909
0.01027634
0.010274252
0.010271694
0.010268708
0.01026533
0.010261586
0.010257496
0.010253067
0.010248302
0.010243199
0.010237758
0.010231987
0.010225893
0.01021948
0.010212746
0.010205674
0.010198236
0.010190398
0.010182127
0.010173382
0.010164111
0.010154249
0.010143736
0.010132515
0.01012052
0.010107652
0.010093789
0.010078769
0.01006238
0.010044831
0.010029138
0.010017516
0.010009098
0.010003273
0.0099994413
0.0099970348
0.0099957742
0.0099956916
0.0099967898
0.0099964383
0.019730575
0.017811765
0.012527691
0.01150285
0.010838524
0.010617916
0.010402544
0.010314599
0.010242161
0.010200831
0.010173181
0.010157041
0.010148876
0.010146705
0.010148994
0.010154584
0.010162608
0.01017241
0.010183416
0.010195166
0.01020727
0.010219394
0.010231256
0.010242615
0.010253278
0.010263087
0.010271932
0.010279739
0.010286464
0.010292092
0.010296632
0.010300114
0.010302582
0.01030409
0.010304696
0.010304465
0.010303467
0.010301772
0.010299447
0.010296561
0.010293173
0.01028934
0.010285112
0.010280531
0.010275632
0.010270441
0.010264973
0.010259237
0.010253231
0.010246947
0.010240378
0.010233523
0.010226383
0.010218959
0.010211246
0.010203229
0.010194879
0.010186159
0.010177031
0.010167455
0.010157382
0.010146747
0.010135484
0.010123531
0.01011083
0.010097294
0.010082809
0.010067278
0.01005068
0.010033489
0.010020103
0.010010097
0.010003002
0.0099983123
0.0099954371
0.0099937391
0.0099930614
0.0099937718
0.0099955238
0.0099948923
0.018717207
0.017001714
0.012217612
0.011344867
0.010753741
0.01056395
0.010377952
0.010302884
0.010243878
0.010211407
0.010191695
0.010182148
0.010179668
0.010182383
0.010188862
0.010198007
0.010208973
0.010221108
0.010233869
0.010246799
0.010259524
0.010271734
0.010283186
0.010293684
0.010303087
0.010311298
0.010318264
0.010323971
0.010328435
0.010331692
0.010333798
0.010334825
0.010334851
0.010333957
0.010332225
0.010329733
0.010326562
0.010322786
0.010318478
0.010313703
0.01030852
0.010302984
0.010297139
0.010291026
0.010284673
0.010278105
0.010271334
0.010264364
0.01025719
0.010249799
0.010242176
0.010234311
0.010226195
0.010217825
0.010209193
0.010200287
0.010191079
0.010181528
0.010171593
0.010161231
0.010150396
0.010139032
0.010127064
0.010114423
0.010101053
0.010086884
0.010071819
0.01005579
0.010039046
0.010023672
0.010012175
0.010003676
0.009997779
0.0099941182
0.0099921478
0.0099911273
0.0099908501
0.0099920954
0.0099946111
0.0099944959
0.017811152
0.016063967
0.011947216
0.011208514
0.010685991
0.010524166
0.010366491
0.010303922
0.010257904
0.010234425
0.010222595
0.010219601
0.010222674
0.010230042
0.010240348
0.010252541
0.010265802
0.010279495
0.010293103
0.010306205
0.010318478
0.010329673
0.010339617
0.010348194
0.010355342
0.010361045
0.010365325
0.010368234
0.010369846
0.01037025
0.010369541
0.010367824
0.010365198
0.010361763
0.01035761
0.010352826
0.010347489
0.010341673
0.010335443
0.01032886
0.010321976
0.010314836
0.01030748
0.010299939
0.010292238
0.010284395
0.010276419
0.010268309
0.010260058
0.010251648
0.010243057
0.010234266
0.010225257
0.010216018
0.010206539
0.010196806
0.010186797
0.010176472
0.010165786
0.01015469
0.010143143
0.010131094
0.010118472
0.010105195
0.010091202
0.010076441
0.010060856
0.010044502
0.010027999
0.010015124
0.01000534
0.0099982156
0.0099934008
0.0099906465
0.0099894868
0.009989131
0.0099892326
0.0099908479
0.0099941197
0.0099959265
0.01700172
0.015298331
0.01171715
0.011094163
0.010636146
0.01050001
0.010369727
0.010319446
0.01028599
0.010271559
0.010267449
0.010270774
0.010279005
0.010290452
0.010303823
0.010318117
0.010332555
0.010346556
0.010359676
0.01037158
0.010382042
0.01039092
0.010398147
0.010403714
0.010407657
0.010410045
0.010410975
0.010410559
0.01040892
0.010406183
0.01040247
0.010397899
0.010392582
0.010386619
0.010380103
0.010373113
0.010365722
0.010357993
0.010349981
0.010341735
0.010333296
0.010324699
0.010315973
0.010307143
0.010298224
0.010289229
0.010280163
0.010271021
0.010261792
0.010252458
0.010242991
0.010233364
0.010223549
0.010213526
0.010203277
0.010192788
0.010182039
0.010170998
0.010159619
0.010147848
0.01013564
0.010122952
0.010109726
0.010095875
0.010081318
0.01006602
0.010049981
0.010033466
0.010018771
0.010007755
0.0099995359
0.0099936571
0.0099898249
0.0099878572
0.0099873683
0.0099876223
0.0099882116
0.009990248
0.0099940895
0.0099971138
0.016279116
0.01461381
0.011522991
0.011002462
0.010605284
0.010493309
0.010389412
0.010351476
0.010330124
0.0103246
0.010327774
0.010336772
0.010349257
0.010363626
0.010378677
0.010393505
0.010407442
0.010420028
0.010430963
0.01044006
0.010447238
0.010452495
0.010455888
0.010457521
0.010457521
0.010456032
0.010453207
0.010449199
0.010444157
0.010438221
0.010431522
0.010424175
0.010416286
0.010407948
0.01039924
0.010390232
0.010380979
0.010371532
0.010361931
0.01035221
0.010342399
0.01033252
0.010322591
0.010312626
0.010302635
0.010292623
0.010282589
0.010272528
0.010262425
0.010252261
0.010242008
0.010231632
0.0102211
0.010210379
0.010199444
0.010188274
0.010176851
0.010165151
0.010153135
0.010140749
0.010127939
0.01011466
0.010100872
0.010086505
0.01007146
0.010055699
0.010039426
0.010023328
0.010010948
0.010001546
0.0099946821
0.0099899158
0.0099869803
0.0099857034
0.0099857355
0.0099864582
0.0099875719
0.0099900663
0.0099941531
0.0099977629
0.015636038
0.014022468
0.011363655
0.010934305
0.010594571
0.010506469
0.010427868
0.010402417
0.01039247
0.010395188
0.010404553
0.010417796
0.010432792
0.010448095
0.010462686
0.01047586
0.010487159
0.010496328
0.010503273
0.010507996
0.01051058
0.010511164
0.010509919
0.010507034
0.010502703
0.010497115
0.010490447
0.010482865
0.01047452
0.010465547
0.010456064
0.010446172
0.010435959
0.010425501
0.010414858
0.010404081
0.010393212
0.010382281
0.010371315
0.010360332
0.010349348
0.010338374
0.010327417
0.010316481
0.010305568
0.010294676
0.0102838
0.010272932
0.010262057
0.010251155
0.010240199
0.010229155
0.010217985
0.01020665
0.010195112
0.010183342
0.010171317
0.010159016
0.010146414
0.010133466
0.010120117
0.010106306
0.010091993
0.010077149
0.010061712
0.01004559
0.010029143
0.010015103
0.010004398
0.0099964079
0.0099906928
0.0099868911
0.0099847614
0.0099841035
0.0099845487
0.0099855826
0.0099871112
0.00999007
0.0099943541
0.0099983105
0.015066387
0.013515453
0.011240615
0.010892554
0.01060595
0.010542932
0.010488061
0.010474716
0.010474672
0.010483862
0.010497173
0.010512095
0.010526838
0.010540265
0.010551675
0.010560681
0.010567116
0.010570982
0.010572404
0.010571567
0.010568692
0.010564021
0.010557797
0.01055025
0.010541599
0.010532037
0.010521738
0.010510854
0.010499515
0.010487833
0.010475902
0.010463801
0.010451593
0.010439329
0.01042705
0.010414789
0.010402568
0.010390402
0.010378303
0.010366274
0.01035432
0.010342438
0.010330626
0.010318879
0.010307191
0.010295555
0.01028396
0.010272395
0.010260845
0.010249291
0.010237709
0.010226066
0.010214326
0.010202446
0.010190383
0.010178096
0.010165548
0.010152716
0.010139578
0.010126111
0.010112274
0.010098002
0.010083223
0.010067909
0.010052122
0.010036042
0.010020237
0.010008264
0.0099990369
0.0099922369
0.0099874835
0.0099844899
0.0099830506
0.0099829329
0.0099837299
0.0099849961
0.0099868286
0.0099901546
0.0099945966
0.0099986926
0.014568474
0.013085266
0.011155965
0.010882055
0.010643552
0.010606442
0.010572518
0.010569411
0.010576239
0.010588535
0.010602157
0.01061509
0.010626069
0.010634429
0.010639897
0.010642453
0.010642234
0.010639475
0.010634471
0.010627527
0.010618942
0.010608996
0.010597945
0.010586015
0.010573404
0.010560283
0.010546792
0.010533052
0.010519161
0.010505197
0.010491227
0.010477299
0.010463454
0.010449719
0.010436114
0.010422653
0.010409342
0.010396183
0.010383172
0.010370303
0.010357568
0.010344955
0.010332452
0.010320046
0.010307725
0.010295474
0.01028328
0.010271126
0.010258997
0.010246873
0.010234734
0.010222552
0.010210296
0.010197925
0.010185397
0.010172663
0.010159677
0.010146397
0.010132794
0.010118849
0.010104548
0.01008986
0.010074721
0.010059036
0.010042802
0.010026567
0.010013092
0.01000262
0.0099946976
0.0099889137
0.0099849681
0.0099826383
0.009981755
0.0099820717
0.0099831704
0.0099846657
0.0099867696
0.0099903408
0.0099948996
0.0099989652
0.014147333
0.012730304
0.011112704
0.010907388
0.010734325
0.010699077
0.010681124
0.010684035
0.010692802
0.010703331
0.010712663
0.010719498
0.010723242
0.010723763
0.010721203
0.010715853
0.010708071
0.010698232
0.0106867
0.010673814
0.010659871
0.010645128
0.010629804
0.010614081
0.010598111
0.010582018
0.0105659
0.010549836
0.010533888
0.010518101
0.010502511
0.010487142
0.010472009
0.010457121
0.010442479
0.010428082
0.010413922
0.010399988
0.010386267
0.010372743
0.010359398
0.010346213
0.010333168
0.010320244
0.010307421
0.010294679
0.010281999
0.010269362
0.010256749
0.01024414
0.010231516
0.010218854
0.010206126
0.010193302
0.010180344
0.010167207
0.010153844
0.010140201
0.01012623
0.010111891
0.010097162
0.01008204
0.010066541
0.010050693
0.0100346
0.010018892
0.01000718
0.0099980421
0.0099912102
0.0099862998
0.0099830445
0.0099812645
0.0099808098
0.0099814367
0.0099827685
0.0099845063
0.0099869027
0.009990628
0.0099951731
0.0099990794
0.013814015
0.012451481
0.01111496
0.01096718
0.010840989
0.010818512
0.010808669
0.010811122
0.010815586
0.01081896
0.010819553
0.010816861
0.010810914
0.010802006
0.010790553
0.010777006
0.010761793
0.010745304
0.010727874
0.01070979
0.010691285
0.010672551
0.010653741
0.010634974
0.010616346
0.010597927
0.010579772
0.010561921
0.010544399
0.010527224
0.010510404
0.010493943
0.010477836
0.010462075
0.01044665
0.010431545
0.010416742
0.010402222
0.010387963
0.010373941
0.010360133
0.010346514
0.010333058
0.010319739
0.010306533
0.010293414
0.010280359
0.010267344
0.010254347
0.010241345
0.010228317
0.010215242
0.010202096
0.010188854
0.010175488
0.010161965
0.010148243
0.010134278
0.010120017
0.010105404
0.010090383
0.010074909
0.01005897
0.010042668
0.010026545
0.010012948
0.010002417
0.0099943884
0.0099884483
0.0099842675
0.0099815967
0.0099802739
0.0099801512
0.0099809838
0.0099824543
0.0099843935
0.0099870808
0.0099909693
0.0099954784
0.0099992063
0.01359188
0.012250677
0.011165056
0.011066887
0.010975055
0.010954481
0.010943873
0.010938805
0.010933085
0.010924954
0.010913843
0.010899876
0.010883462
0.010865082
0.01084521
0.01082427
0.010802622
0.010780564
0.010758333
0.010736115
0.010714054
0.010692259
0.01067081
0.010649764
0.010629162
0.010609029
0.01058938
0.010570221
0.010551551
0.010533364
0.010515648
0.010498389
0.01048157
0.01046517
0.010449168
0.01043354
0.010418262
0.010403307
0.010388648
0.010374258
0.010360106
0.010346165
0.010332405
0.010318797
0.010305311
0.010291918
0.010278591
0.010265301
0.010252022
0.010238727
0.010225392
0.010211993
0.010198506
0.010184908
0.010171174
0.01015728
0.010143196
0.010128891
0.010114328
0.010099466
0.010084259
0.010068663
0.010052657
0.010036353
0.010020453
0.01000829
0.00999876
0.0099915821
0.0099863453
0.0099827455
0.0099805438
0.0099795717
0.0099796808
0.0099806804
0.0099822102
0.0099842613
0.0099871267
0.0099911336
0.0099956807
0.0099992699
0.013428403
0.012127959
0.01126472
0.01119286
0.01111931
0.011093109
0.011072504
0.011054054
0.011034331
0.011012718
0.010989287
0.010964396
0.010938484
0.010911951
0.010885138
0.010858318
0.0108317
0.010805442
0.01077966
0.010754433
0.010729816
0.010705842
0.010682528
0.01065988
0.010637896
0.010616565
0.010595872
0.010575798
0.010556323
0.010537422
0.010519071
0.010501244
0.010483913
0.010467051
0.01045063
0.010434619
0.010418989
0.010403711
0.010388754
0.010374087
0.010359679
0.010345499
0.010331515
0.010317696
0.010304011
0.010290427
0.010276913
0.010263439
0.010249974
0.010236488
0.010222952
0.010209338
0.010195618
0.010181765
0.010167754
0.010153559
0.010139155
0.010124516
0.010109616
0.010094428
0.010078923
0.010063083
0.010046943
0.010030792
0.010016053
0.010004835
0.0099961004
0.0099895625
0.0099848545
0.0099816985
0.0099798681
0.0099791657
0.0099793309
0.0099804993
0.0099820695
0.0099841704
0.0099870354
0.0099908951
0.0099952887
0.0099989616
0.013356391
0.012081821
0.011415041
0.011328228
0.011257457
0.011216274
0.011180011
0.011145778
0.011111775
0.011077734
0.011043752
0.011010035
0.010976792
0.010944195
0.010912369
0.010881401
0.010851343
0.010822222
0.010794046
0.010766809
0.010740494
0.010715078
0.010690533
0.010666827
0.010643926
0.010621797
0.010600404
0.010579712
0.010559687
0.010540294
0.010521499
0.010503268
0.010485569
0.010468369
0.010451635
0.010435335
0.010419436
0.010403908
0.010388717
0.010373832
0.01035922
0.010344851
0.010330691
0.010316708
0.010302872
0.010289148
0.010275506
0.010261912
0.010248335
0.010234742
0.010221101
0.010207379
0.010193546
0.010179569
0.010165417
0.010151061
0.01013647
0.010121615
0.01010647
0.010091012
0.010075223
0.01005911
0.010042772
0.010026696
0.01001303
0.010002471
0.0099943197
0.0099882396
0.0099838982
0.0099810348
0.0099794431
0.0099789265
0.0099793201
0.0099804247
0.0099820856
0.0099842707
0.0099871443
0.0099908139
0.0099949394
0.0099986323
0.013347201
0.012054425
0.011554629
0.011449176
0.0113672
0.011308751
0.011256787
0.011208916
0.011163602
0.011120345
0.011078916
0.011039201
0.011001124
0.010964619
0.010929621
0.010896065
0.010863884
0.010833009
0.010803375
0.010774917
0.010747572
0.010721281
0.010695985
0.01067163
0.010648163
0.010625535
0.010603699
0.01058261
0.010562225
0.010542503
0.010523405
0.010504894
0.010486933
0.010469486
0.010452519
0.010435998
0.010419889
0.010404161
0.010388779
0.010373713
0.010358931
0.0103444
0.010330089
0.010315966
0.010302
0.01028816
0.010274414
0.01026073
0.010247076
0.010233421
0.010219731
0.010205975
0.010192119
0.010178129
0.010163972
0.010149612
0.010135015
0.010120143
0.010104962
0.010089438
0.010073544
0.010057281
0.010040768
0.010024617
0.010011474
0.01000126
0.0099934156
0.0099875894
0.0099834592
0.0099807696
0.0099793186
0.0099788692
0.0099793264
0.0099804675
0.0099821826
0.0099844358
0.0099872966
0.0099907854
0.0099946629
0.0099983766
0.013406607
0.012073304
0.011654267
0.011532475
0.011437908
0.011365767
0.011302743
0.011246001
0.011193713
0.011144995
0.01109928
0.011056189
0.011015434
0.010976791
0.010940073
0.010905119
0.010871794
0.010839975
0.010809554
0.010780434
0.010752527
0.010725754
0.01070004
0.010675318
0.010651527
0.010628608
0.010606507
0.010585176
0.010564565
0.010544632
0.010525335
0.010506633
0.010488488
0.010470863
0.010453723
0.010437033
0.010420759
0.010404869
0.010389329
0.010374108
0.010359173
0.010344494
0.01033004
0.01031578
0.010301683
0.010287718
0.010273857
0.010260067
0.010246319
0.010232582
0.010218827
0.010205021
0.010191135
0.010177137
0.010162996
0.010148679
0.010134154
0.010119389
0.010104351
0.010089008
0.010073334
0.010057326
0.010041082
0.010025124
0.010011741
0.010001438
0.0099935217
0.0099876586
0.0099835152
0.0099808287
0.0099793836
0.0099789355
0.0099793832
0.0099805341
0.009982286
0.0099845855
0.0099874268
0.0099907715
0.0099944604
0.0099982057
0.013503376
0.012116913
0.011703352
0.011572708
0.011469986
0.011391695
0.011323871
0.011263628
0.011208696
0.011157986
0.011110746
0.011066473
0.011024792
0.01098541
0.010948094
0.010912649
0.010878911
0.010846739
0.010816012
0.010786619
0.010758466
0.010731465
0.010705539
0.010680616
0.010656632
0.010633526
0.010611243
0.010589731
0.010568943
0.010548832
0.010529358
0.010510478
0.010492155
0.010474352
0.010457033
0.010440162
0.010423708
0.010407635
0.010391912
0.010376508
0.01036139
0.010346527
0.010331889
0.010317444
0.010303164
0.010289017
0.010274973
0.010261002
0.010247074
0.010233159
0.010219226
0.010205246
0.010191186
0.010177017
0.010162707
0.010148226
0.01013354
0.010118619
0.010103432
0.010087947
0.010072143
0.010056023
0.010039708
0.010023814
0.010011004
0.010000982
0.0099932779
0.009987544
0.0099834798
0.0099808369
0.009979406
0.0099789561
0.0099793855
0.0099805268
0.0099822913
0.0099846114
0.0099874419
0.0099907163
0.0099943178
0.0099981066
92.479777
454.15029
141.67386
12.315822
0.27230005
0.021634878
0.020634532
0.020021223
0.01933497
0.018156891
0.0169353
0.015868233
0.015016062
0.014452786
0.014053887
0.013680896
0.013314522
0.012985128
0.012706618
0.01247346
0.012275489
0.012104879
0.011956386
0.011826186
0.011711245
0.011609088
0.011517725
0.011435566
0.011361365
0.011294135
0.011233057