/*--------------------------------*- C++ -*----------------------------------*\
| =========                 |                                                 |
| \\      /  F ield         | OpenFOAM: The Open Source CFD Toolbox           |
|  \\    /   O peration     | Version:  2512                                  |
|   \\  /    A nd           | Website:  www.openfoam.com                      |
|    \\/     M anipulation  |                                                 |
\*---------------------------------------------------------------------------*/
FoamFile
{
    version     2.0;
    format      ascii;
    arch        "LSB;label=32;scalar=64";
    class       volScalarField;
    location    "0.147";
    object      Ma;
}
// * * * * * * * * * * * * * * * * * * * * * * * * * * * * * * * * * * * * * //

dimensions      [0 0 0 0 0 0 0];

internalField   nonuniform List<scalar> 
16000
(
0.6258645
0.74364698
0.69817449
0.72352058
0.70808193
0.71543611
0.70956568
0.71127932
0.70859414
0.70824129
0.70662266
0.70553511
0.70414124
0.70279012
0.70134956
0.69986243
0.69831515
0.69671029
0.69504651
0.69332346
0.69154083
0.68969851
0.68779662
0.68583557
0.68381605
0.68173911
0.67960612
0.67741886
0.67517949
0.67289061
0.67055522
0.66817678
0.66575917
0.6633067
0.66082407
0.6583164
0.6557891
0.65324792
0.65069885
0.64814804
0.6456018
0.64306645
0.64054828
0.63805348
0.63558804
0.63315768
0.63076781
0.62842342
0.62612906
0.62388881
0.62170619
0.6195842
0.61752527
0.61553125
0.61360341
0.6117424
0.60994831
0.60822065
0.60655836
0.60495972
0.60342242
0.60194383
0.60052101
0.59915028
0.59782713
0.59654606
0.59530066
0.594084
0.59288919
0.59170952
0.59053782
0.5893655
0.58818303
0.58698276
0.58576152
0.58452597
0.58318044
0.5822039
0.58001875
0.58009062
0.63032295
0.74885954
0.701697
0.72816628
0.71187825
0.71972867
0.71338634
0.71523659
0.71236023
0.71193963
0.71023339
0.70902933
0.70754523
0.70607898
0.70453003
0.70292575
0.70125894
0.69953009
0.69773864
0.69588427
0.69396693
0.69198678
0.68994432
0.68784033
0.68567597
0.68345276
0.68117264
0.67883797
0.67645158
0.67401674
0.67153718
0.66901713
0.66646124
0.66387461
0.66126274
0.65863151
0.65598709
0.65333591
0.6506846
0.64803986
0.64540843
0.64279698
0.64021202
0.63765983
0.63514636
0.63267716
0.63025735
0.62789151
0.62558369
0.62333736
0.62115539
0.61904005
0.61699302
0.61501538
0.61310765
0.61126975
0.60950108
0.60780048
0.6061663
0.60459633
0.60308777
0.60163756
0.60024242
0.59889848
0.5976011
0.59634474
0.59512288
0.5939284
0.59275413
0.59159317
0.59043832
0.58928102
0.58811166
0.58692246
0.58570897
0.58446319
0.58319802
0.58199248
0.58027131
0.57977087
0.63451715
0.75361936
0.70522699
0.73219
0.71547443
0.72341161
0.71692455
0.7186509
0.7157272
0.71514385
0.71337205
0.71202725
0.71043905
0.70884454
0.70717035
0.70543405
0.70363141
0.70176253
0.69982715
0.69782526
0.69575714
0.69362335
0.69142482
0.68916283
0.68683909
0.68445573
0.68201537
0.6795211
0.67697655
0.67438582
0.67175356
0.66908491
0.66638547
0.66366131
0.66091886
0.65816489
0.65540644
0.6526507
0.64990494
0.64717644
0.64447233
0.64179954
0.63916469
0.63657398
0.63403317
0.63154742
0.62912134
0.62675887
0.62446332
0.62223731
0.62008281
0.61800116
0.61599307
0.61405867
0.61219754
0.61040874
0.60869082
0.60704185
0.6054595
0.60394096
0.60248293
0.60108187
0.59973412
0.59843556
0.59718143
0.59596611
0.59478307
0.59362508
0.59248483
0.59135527
0.59022922
0.58909836
0.58795328
0.58678565
0.58558948
0.58436199
0.58312442
0.58184202
0.58033027
0.57956113
0.63832248
0.75794785
0.70823818
0.73565193
0.71858239
0.72663149
0.71998073
0.72157464
0.71858876
0.71782753
0.71597545
0.71447504
0.71276563
0.71102769
0.70921185
0.70732776
0.70537366
0.70334942
0.70125516
0.69909118
0.69685816
0.69455708
0.69218939
0.68975696
0.68726216
0.68470787
0.68209757
0.67943524
0.67672551
0.67397353
0.67118503
0.66836627
0.66552398
0.6626653
0.65979774
0.65692903
0.65406708
0.65121983
0.64839517
0.64560078
0.64284406
0.64013199
0.63747107
0.6348672
0.6323256
0.62985081
0.62744662
0.62511606
0.6228614
0.62068419
0.61858528
0.61656487
0.61462253
0.61275732
0.61096777
0.60925198
0.60760762
0.60603198
0.60452201
0.60307432
0.60168509
0.60035037
0.59906614
0.59782806
0.59663128
0.59547019
0.59433827
0.59322829
0.59213281
0.59104467
0.58995678
0.58886115
0.58774851
0.58660982
0.58543899
0.58423845
0.58301823
0.58172098
0.58034794
0.57938224
0.64172895
0.76178143
0.71099416
0.73858549
0.7210715
0.72927471
0.72251577
0.72391491
0.72088609
0.71991311
0.71797198
0.71629868
0.71445026
0.71255398
0.71057995
0.70853251
0.70641113
0.70421578
0.70194682
0.69960494
0.69719125
0.69470732
0.69215526
0.68953774
0.68685804
0.68412007
0.68132839
0.67848821
0.6756054
0.67268644
0.6697384
0.66676887
0.66378588
0.6607978
0.65781327
0.65484104
0.65188984
0.64896828
0.64608469
0.64324697
0.64046253
0.63773812
0.63507978
0.63249273
0.62998137
0.62754922
0.62519892
0.62293227
0.62075022
0.61865299
0.61664008
0.61471037
0.61286218
0.61109336
0.60940135
0.60778323
0.60623579
0.60475551
0.60333869
0.60198137
0.60067928
0.59942809
0.59822348
0.59706094
0.59593558
0.59484185
0.59377333
0.59272286
0.59168299
0.59064649
0.58960644
0.58855521
0.58748368
0.58638241
0.58524632
0.58407975
0.5828806
0.58160156
0.5803113
0.5792318
0.64470215
0.76504558
0.71328467
0.74104041
0.72324265
0.73127692
0.72439858
0.72561005
0.72252939
0.72133834
0.71929744
0.71744072
0.71543721
0.71336957
0.71122171
0.70899491
0.70668926
0.70430507
0.70184314
0.69930478
0.69669185
0.6940068
0.69125276
0.68843355
0.68555372
0.68261854
0.67963405
0.67660699
0.67354481
0.67045559
0.66734798
0.66423108
0.66111437
0.65800751
0.65492026
0.65186229
0.64884301
0.64587147
0.64295613
0.6401048
0.63732448
0.63462126
0.63200029
0.62946569
0.62702058
0.62466705
0.62240624
0.62023837
0.61816281
0.61617822
0.61428257
0.61247332
0.61074742
0.60910151
0.60753192
0.60603475
0.60460595
0.60324131
0.6019365
0.60068709
0.59948847
0.598336
0.59722518
0.59615139
0.59510975
0.59409484
0.59310048
0.59211964
0.59114493
0.59016916
0.58918556
0.58818693
0.5871643
0.58610831
0.58501502
0.58388794
0.5827179
0.5814756
0.58025061
0.57908333
0.64723071
0.76773348
0.7151352
0.74299437
0.72494733
0.73261605
0.72580968
0.72664301
0.72358006
0.72209113
0.71993215
0.71787999
0.71570028
0.71344177
0.71109752
0.70866784
0.70615352
0.70355563
0.70087586
0.69811649
0.69528055
0.69237175
0.68939467
0.68635465
0.68325791
0.68011149
0.67692327
0.67370187
0.67045665
0.66719753
0.66393494
0.66067963
0.65744252
0.65423453
0.65106639
0.64794844
0.64489046
0.64190151
0.63898977
0.63616238
0.63342543
0.63078378
0.62824115
0.62580004
0.62346178
0.62122665
0.61909388
0.61706183
0.61512807
0.61328951
0.61154253
0.60988307
0.60830679
0.60680912
0.60538537
0.60403077
0.60274053
0.60150985
0.60033395
0.59920804
0.59812729
0.59708688
0.59608221
0.59510866
0.59416146
0.59323541
0.59232459
0.59142226
0.59052118
0.58961426
0.58869496
0.5877564
0.58678993
0.58578677
0.58474372
0.58366154
0.58252833
0.58133613
0.58016753
0.57893559
0.64935202
0.76987127
0.71657788
0.74448427
0.72623326
0.73360711
0.72667793
0.72743227
0.72391725
0.72218122
0.71986954
0.71759498
0.71520381
0.71272204
0.710148
0.70748241
0.70472689
0.70188355
0.69895525
0.69594564
0.69285925
0.68970148
0.68647874
0.68319837
0.67986871
0.67649899
0.67309933
0.66968059
0.6662543
0.66283243
0.65942728
0.65605122
0.65271652
0.64943508
0.64621826
0.6430766
0.64001972
0.63705607
0.63419283
0.63143584
0.62878952
0.62625687
0.62383953
0.6215378
0.61935079
0.61727651
0.61531204
0.61345364
0.61169695
0.61003709
0.60846885
0.60698677
0.60558526
0.60425872
0.60300158
0.60180838
0.60067379
0.59959259
0.5985597
0.59757016
0.59661904
0.59570151
0.59481299
0.59394897
0.59310485
0.59227574
0.5914561
0.59063955
0.58981912
0.58898789
0.58813953
0.58726747
0.58636355
0.58542
0.58443365
0.58340128
0.58231229
0.58118066
0.5800658
0.57878289
0.65112586
0.77147851
0.7175497
0.74549611
0.7268228
0.73352043
0.72672655
0.72667388
0.72361492
0.72154889
0.71903517
0.71650253
0.713858
0.71111413
0.70827168
0.70533239
0.70229888
0.69917463
0.6959641
0.69267271
0.68930703
0.68587471
0.68238455
0.67884646
0.6752714
0.6716713
0.66805892
0.66444767
0.66085144
0.65728431
0.65376038
0.65029341
0.64689663
0.64358243
0.64036212
0.63724574
0.63424186
0.63135745
0.62859784
0.62596665
0.62346583
0.62109578
0.61885542
0.61674235
0.61475304
0.61288298
0.61112691
0.60947896
0.60793283
0.60648199
0.60511976
0.60383946
0.60263451
0.60149848
0.60042519
0.59940871
0.59844338
0.59752379
0.59664477
0.59580137
0.59498872
0.59420214
0.59343719
0.59268957
0.59195495
0.59122883
0.59050611
0.58978087
0.58904652
0.58829641
0.58752439
0.5867241
0.58588819
0.58501021
0.58408601
0.58310787
0.58207047
0.58100818
0.57994449
0.57862388
0.65253787
0.77252107
0.71797741
0.74576954
0.72669183
0.73299143
0.72626267
0.72576282
0.72248582
0.720073
0.71730826
0.71448152
0.71154091
0.70849319
0.70534055
0.70208637
0.69873494
0.69529173
0.69176343
0.688158
0.68448478
0.68075437
0.67697872
0.67317094
0.66934524
0.66551669
0.66170105
0.65791445
0.65417314
0.65049314
0.64688993
0.64337813
0.63997116
0.63668097
0.63351782
0.6304901
0.62760419
0.62486448
0.62227331
0.61983115
0.61753667
0.61538696
0.6133777
0.61150345
0.60975783
0.60813375
0.60662365
0.60521965
0.60391377
0.60269803
0.60156462
0.60050595
0.59951473
0.59858405
0.5977074
0.59687866
0.5960921
0.59534236
0.59462439
0.59393342
0.59326485
0.59261425
0.59197748
0.59135053
0.59072945
0.59011014
0.58948804
0.58885777
0.58821324
0.58754812
0.58685638
0.58613188
0.5853684
0.58456082
0.58370301
0.58278293
0.58180387
0.58081694
0.57980259
0.57845904
0.65352317
0.77288788
0.71778743
0.74452738
0.72582003
0.73151834
0.72492938
0.72380563
0.7204393
0.71764395
0.71457048
0.71140418
0.70811796
0.70471774
0.70120723
0.69759208
0.69387906
0.69007643
0.68619409
0.68224345
0.67823753
0.67419083
0.67011924
0.6660398
0.66197047
0.65792982
0.65393675
0.65000999
0.6461678
0.64242749
0.63880508
0.63531488
0.63196924
0.62877823
0.62574956
0.6228885
0.62019784
0.61767808
0.61532753
0.61314259
0.61111797
0.60924701
0.60752194
0.60593416
0.60447455
0.60313364
0.60190185
0.60076969
0.59972785
0.59876735
0.59787965
0.59705664
0.59629075
0.59557492
0.59490263
0.59426787
0.59366512
0.59308929
0.59253566
0.59199982
0.59147756
0.59096488
0.59045804
0.58995341
0.58944744
0.58893654
0.58841668
0.58788312
0.58733035
0.58675246
0.58614345
0.58549748
0.58480965
0.58407602
0.58328757
0.58242902
0.58151456
0.58060569
0.57963743
0.57828904
0.65400015
0.77243605
0.71687613
0.74270089
0.72440153
0.72918315
0.7226606
0.72094107
0.71734137
0.71412651
0.71067926
0.707118
0.70342915
0.69962061
0.6956985
0.6916717
0.68755059
0.68334751
0.67907672
0.67475434
0.67039822
0.66602773
0.66166352
0.65732712
0.65304061
0.64882608
0.64470519
0.64069863
0.63682561
0.63310339
0.62954685
0.62616817
0.62297665
0.61997857
0.61717722
0.61457303
0.61216382
0.60994501
0.60791004
0.60605067
0.60435738
0.60281969
0.60142654
0.60016649
0.59902808
0.59799996
0.59707108
0.59623086
0.59546924
0.59477677
0.59414464
0.59356471
0.59302951
0.59253221
0.59206662
0.59162711
0.5912086
0.5908065
0.59041659
0.59003497
0.58965796
0.5892821
0.58890412
0.58852085
0.58812923
0.58772612
0.58730809
0.58687108
0.58641027
0.58592016
0.58539482
0.58482879
0.58421862
0.58356098
0.5828435
0.58204978
0.58120597
0.58037516
0.57944708
0.57811461
0.65391826
0.7710975
0.71512053
0.74006586
0.72203842
0.72581379
0.71934983
0.71695028
0.71304749
0.70936065
0.70546564
0.70144202
0.69728384
0.6930029
0.68860935
0.68411678
0.67954085
0.67489955
0.6702131
0.66550364
0.66079508
0.65611256
0.65148208
0.64692992
0.64248199
0.63816319
0.63399674
0.63000356
0.62620172
0.62260598
0.61922752
0.61607383
0.61314868
0.61045231
0.60798172
0.60573105
0.603692
0.60185428
0.60020612
0.59873467
0.59742643
0.59626758
0.59524433
0.59434312
0.59355085
0.59285505
0.59224392
0.59170645
0.59123248
0.59081263
0.59043836
0.59010194
0.58979641
0.58951549
0.58925359
0.58900573
0.58876749
0.5885349
0.58830441
0.58807273
0.58783683
0.58759384
0.58734105
0.58707581
0.58679551
0.58649754
0.58617904
0.58583664
0.58546627
0.58506287
0.58462066
0.58413474
0.58360294
0.58302168
0.58237552
0.58164994
0.58088263
0.58012773
0.57923057
0.57794045
0.65325653
0.76876927
0.71245992
0.73637396
0.71865479
0.72131484
0.71482343
0.71170039
0.70737731
0.70314735
0.69871816
0.69415116
0.68944666
0.6846222
0.67969422
0.67468315
0.66961196
0.66450618
0.65939364
0.65430398
0.64926808
0.64431744
0.63948335
0.63479604
0.63028385
0.62597231
0.62188348
0.61803531
0.61444129
0.61111023
0.60804633
0.6052494
0.60271524
0.60043615
0.59840148
0.59659826
0.59501179
0.5936262
0.59242494
0.59139124
0.59050848
0.58976046
0.58913164
0.58860732
0.58817373
0.5878181
0.58752871
0.58729484
0.58710681
0.58695591
0.58683431
0.58673509
0.58665211
0.58657994
0.58651383
0.58644961
0.58638365
0.58631276
0.58623411
0.58614515
0.58604349
0.58592695
0.58579339
0.58564071
0.5854668
0.58526951
0.58504654
0.58479523
0.5845122
0.58419292
0.58383195
0.58342513
0.58297108
0.58246496
0.58188938
0.58123528
0.58054948
0.57986632
0.57899228
0.57776331
0.65194222
0.76526595
0.7088546
0.73148121
0.71408322
0.71549907
0.70888008
0.70496294
0.70009379
0.69522734
0.69016404
0.68496061
0.67962576
0.67418521
0.66866458
0.66309365
0.65750504
0.65193391
0.64641733
0.6409934
0.63570031
0.63057516
0.62565281
0.62096476
0.61653812
0.61239481
0.60855107
0.60501722
0.60179776
0.59889164
0.59629286
0.59399109
0.59197253
0.59022062
0.58871685
0.58744146
0.5863741
0.58549433
0.58478208
0.58421797
0.5837836
0.58346167
0.58323615
0.58309228
0.58301662
0.582997
0.58302251
0.58308339
0.583171
0.5832777
0.58339681
0.58352246
0.58364961
0.58377386
0.58389145
0.58399914
0.58409417
0.58417418
0.58423714
0.58428122
0.58430473
0.58430618
0.58428402
0.58423671
0.58416262
0.58406007
0.58392726
0.58376216
0.58356205
0.58332296
0.58304014
0.58271033
0.5823321
0.58189845
0.58139193
0.58081255
0.58021209
0.57959429
0.57873671
0.57758688
0.64991425
0.76034163
0.70439886
0.7252134
0.70814712
0.70814926
0.70125323
0.69644958
0.69088414
0.68526425
0.67945469
0.6735159
0.66746871
0.66135
0.65519777
0.64905417
0.64296405
0.63697406
0.63113131
0.62548189
0.62006922
0.61493252
0.6101054
0.60561479
0.60148029
0.59771383
0.5943199
0.59129599
0.58863336
0.58631804
0.58433183
0.58265337
0.58125919
0.58012453
0.57922424
0.57853331
0.5780275
0.57768362
0.57747988
0.577396
0.57741337
0.57751503
0.57768565
0.57791152
0.57818041
0.57848153
0.57880539
0.57914368
0.57948922
0.57983578
0.58017802
0.58051139
0.58083203
0.5811367
0.58142269
0.58168773
0.58192998
0.5821479
0.58234023
0.58250589
0.58264389
0.58275336
0.58283337
0.58288293
0.58290088
0.58288598
0.58283689
0.5827521
0.58262942
0.58246556
0.5822568
0.58200082
0.58169531
0.5813305
0.58089109
0.58038896
0.57987626
0.57931773
0.57847253
0.57741508
0.64711053
0.75362833
0.69877563
0.7173143
0.70052802
0.69893224
0.69156698
0.6857549
0.67933037
0.67282727
0.66615869
0.65939419
0.65257171
0.64574364
0.63896451
0.63229216
0.62578556
0.61950273
0.61349852
0.60782235
0.60251638
0.59761391
0.59313858
0.58910406
0.5855143
0.58236432
0.57964134
0.57732616
0.57539456
0.57381874
0.57256864
0.57161313
0.57092092
0.57046142
0.57020526
0.57012472
0.57019406
0.57038959
0.5706898
0.57107531
0.57152878
0.57203485
0.57258001
0.57315241
0.57374175
0.57433916
0.57493698
0.57552872
0.57610884
0.57667273
0.5772165
0.57773698
0.57823156
0.57869814
0.57913508
0.57954107
0.57991515
0.58025658
0.58056482
0.58083947
0.58108023
0.58128682
0.58145888
0.58159594
0.58169733
0.58176223
0.58178972
0.58177862
0.58172719
0.58163287
0.58149327
0.58130694
0.58107
0.58077003
0.58039587
0.57997193
0.57954642
0.57904361
0.57821501
0.57724302
0.64341771
0.74457872
0.69154112
0.70735393
0.6907874
0.68738101
0.67931851
0.67236113
0.66491288
0.65739758
0.64977195
0.64212134
0.63450799
0.62700576
0.61968936
0.61263313
0.60590744
0.59957556
0.59369094
0.58829521
0.58341696
0.5790715
0.57526139
0.5719777
0.56920161
0.56690645
0.56505967
0.56362476
0.56256301
0.56183499
0.56140172
0.56122562
0.56127115
0.56150524
0.56189753
0.56242051
0.56304945
0.56376236
0.56453982
0.56536482
0.56622256
0.56710022
0.56798682
0.56887297
0.56975072
0.57061339
0.57145539
0.57227215
0.57305989
0.57381559
0.57453687
0.57522188
0.57586922
0.5764779
0.57704727
0.57757692
0.5780667
0.5785166
0.57892674
0.57929735
0.57962871
0.57992109
0.58017466
0.58038944
0.58056524
0.58070167
0.58079815
0.58085375
0.58086702
0.58083622
0.58076032
0.58063847
0.58046507
0.58022612
0.57991597
0.579569
0.5792248
0.57877362
0.57797235
0.57707356
0.63858772
0.73298124
0.68216895
0.69476625
0.67833847
0.67292177
0.66389167
0.65563411
0.64700408
0.63836768
0.62973329
0.62121148
0.61289549
0.60488303
0.59726586
0.59012639
0.58353346
0.57753964
0.57217964
0.56747019
0.56341105
0.55998693
0.55717009
0.55492314
0.55320193
0.55195811
0.55114151
0.55070195
0.55059071
0.5507616
0.55117162
0.5517814
0.55255534
0.5534616
0.55447202
0.55556189
0.55670969
0.55789681
0.55910729
0.56032749
0.5615459
0.56275281
0.56394013
0.56510119
0.56623052
0.56732371
0.56837726
0.56938844
0.5703552
0.57127604
0.57214997
0.57297636
0.57375493
0.5744857
0.57516889
0.57580491
0.57639431
0.57693774
0.5774359
0.57788954
0.57829946
0.5786664
0.57899099
0.57927371
0.57951484
0.57971441
0.57987217
0.57998735
0.58005878
0.58008547
0.58006749
0.58000418
0.57988857
0.57970705
0.57946028
0.57918752
0.57891384
0.57850566
0.5777412
0.5769314
0.63224735
0.71997157
0.67016093
0.67892811
0.66244328
0.65481785
0.6445041
0.63477831
0.62485097
0.6150673
0.6054991
0.59628704
0.58755113
0.57940124
0.57192751
0.5651973
0.55925298
0.55411213
0.54976937
0.54619947
0.54336132
0.54120211
0.53966138
0.53867462
0.53817636
0.53810248
0.53839191
0.53898786
0.53983839
0.54089679
0.54212154
0.54347614
0.5449288
0.54645209
0.54802248
0.54961996
0.55122764
0.55283132
0.5544192
0.55598153
0.55751033
0.55899916
0.56044289
0.5618375
0.56317992
0.56446789
0.56569984
0.56687476
0.56799214
0.56905186
0.57005412
0.57099941
0.57188841
0.572722
0.57350117
0.57422703
0.57490072
0.57552344
0.5760964
0.57662079
0.57709782
0.57752861
0.57791421
0.57825548
0.57855314
0.57880765
0.57901905
0.5791868
0.57931004
0.57938844
0.57942263
0.57941154
0.57934751
0.57921961
0.57903529
0.5788334
0.57861905
0.57824346
0.57752171
0.57681941
0.62404087
0.70293223
0.65470385
0.65895534
0.64205645
0.63201901
0.62013444
0.60884693
0.59766468
0.58692544
0.57675919
0.56732147
0.55873138
0.55107722
0.54441112
0.53875047
0.53408099
0.53036187
0.52753193
0.52551583
0.52423003
0.52358774
0.52350293
0.52389326
0.52468207
0.52579951
0.52718307
0.52877759
0.53053502
0.53241396
0.53437899
0.53640013
0.53845215
0.54051398
0.54256816
0.54460035
0.54659883
0.54855418
0.55045886
0.552307
0.55409407
0.55581669
0.55747247
0.55905981
0.5605778
0.56202608
0.56340476
0.56471432
0.56595557
0.56712954
0.56823747
0.56928078
0.57026095
0.57117958
0.57203831
0.5728388
0.5735827
0.57427166
0.57490729
0.57549116
0.57602479
0.57650963
0.576947
0.57733815
0.57768414
0.57798581
0.5782435
0.57845703
0.57862601
0.57875066
0.57883154
0.5788666
0.5788481
0.5787695
0.57864506
0.57850965
0.57834628
0.57799688
0.57732346
0.57674755
0.61333865
0.68093266
0.63438095
0.63346048
0.61572441
0.60316884
0.5896483
0.57698014
0.56493363
0.55381897
0.54377983
0.53493859
0.5273595
0.52105831
0.51600569
0.51213635
0.50935849
0.50756354
0.5066347
0.50645402
0.50690763
0.50788931
0.50930258
0.51106168
0.51309163
0.51532787
0.51771539
0.52020784
0.5227665
0.52535927
0.52795976
0.53054646
0.53310195
0.53561226
0.53806636
0.54045561
0.54277339
0.54501478
0.54717621
0.54925529
0.55125055
0.55316132
0.55498755
0.5567297
0.55838869
0.55996573
0.56146232
0.56288019
0.5642212
0.56548734
0.56668069
0.56780339
0.56885759
0.56984546
0.57076915
0.57163078
0.5724324
0.57317602
0.57386357
0.57449692
0.57507784
0.575608
0.57608898
0.57652227
0.57690922
0.57725093
0.57754809
0.57780097
0.57800982
0.57817534
0.5782977
0.57837364
0.57839583
0.5783624
0.57829276
0.57821587
0.57809749
0.57778157
0.57717313
0.57669997
0.59898195
0.65189704
0.60732985
0.6007225
0.58187482
0.56693615
0.55221193
0.53887942
0.52689546
0.5164824
0.50771085
0.50059503
0.49508006
0.49106182
0.48840093
0.48693849
0.48650882
0.4869496
0.48810869
0.48984826
0.49204671
0.49459897
0.49741579
0.50042235
0.50355669
0.506768
0.51001496
0.51326426
0.5164893
0.51966902
0.52278693
0.5258303
0.52878947
0.53165727
0.53442858
0.53709993
0.53966919
0.5421353
0.5444981
0.54675809
0.54891636
0.55097442
0.55293414
0.55479765
0.55656729
0.55824555
0.55983503
0.56133839
0.56275836
0.56409766
0.56535902
0.56654513
0.56765867
0.56870224
0.56967841
0.57058963
0.57143827
0.57222662
0.57295687
0.57363112
0.57425132
0.57481933
0.5753369
0.5758057
0.57622724
0.57660282
0.5769334
0.57721976
0.57746283
0.57766373
0.57782224
0.57793439
0.577994
0.57800309
0.57798263
0.57795333
0.57787069
0.5775952
0.57707052
0.57667699
0.5790972
0.61351948
0.57139676
0.55900759
0.53956688
0.52266882
0.50790669
0.49534357
0.48494236
0.47674433
0.47064565
0.4664812
0.46403465
0.46306834
0.46334229
0.46462921
0.46672325
0.46944433
0.472639
0.4761792
0.4799598
0.48389567
0.48791863
0.49197468
0.4960214
0.50002585
0.50396272
0.50781284
0.51156193
0.51519961
0.51871861
0.52211409
0.52538318
0.52852453
0.53153796
0.53442428
0.53718496
0.53982209
0.54233816
0.54473598
0.54701859
0.54918921
0.55125117
0.55320787
0.55506274
0.55681923
0.55848074
0.56005068
0.56153239
0.56292913
0.56424413
0.56548049
0.56664127
0.56772941
0.56874776
0.56969904
0.57058587
0.57141074
0.57217605
0.57288406
0.57353688
0.57413652
0.57468486
0.57518367
0.57563457
0.57603894
0.57639797
0.57671283
0.57698499
0.57721581
0.57740483
0.57754835
0.57764235
0.57769204
0.57771696
0.57772741
0.57767144
0.57743084
0.57699245
0.57672263
0.55114571
0.56336491
0.52529331
0.50701992
0.48647407
0.4711483
0.45831753
0.4485926
0.4416987
0.43738852
0.43530879
0.43509234
0.43637951
0.43884392
0.44220215
0.44621693
0.45069478
0.45548117
0.46045472
0.46552136
0.47060908
0.47566342
0.48064368
0.48551992
0.49027054
0.49488037
0.49933918
0.50364055
0.50778094
0.511759
0.51557507
0.51923072
0.52272845
0.52607145
0.5292634
0.53230831
0.53521045
0.53797421
0.54060407
0.54310453
0.5454801
0.54773523
0.54987431
0.55190164
0.55382147
0.55563789
0.55735494
0.5589765
0.56050636
0.56194819
0.56330554
0.56458183
0.56578037
0.56690434
0.5679568
0.56894067
0.56985872
0.57071364
0.57150795
0.57224405
0.57292418
0.57355047
0.57412491
0.57464934
0.57512544
0.57555467
0.57593835
0.57627793
0.57657509
0.57683111
0.57704546
0.57721534
0.5773394
0.57742534
0.57748993
0.57753489
0.57750715
0.57731188
0.57696159
0.57676965
0.51105393
0.49883963
0.46178264
0.44405832
0.42679495
0.41476028
0.4066131
0.40214119
0.40067598
0.4016284
0.40442713
0.40858633
0.4137061
0.4194711
0.42563888
0.43202708
0.43850084
0.44496195
0.45134007
0.45758567
0.46366476
0.4695548
0.47524166
0.48071737
0.48597844
0.49102459
0.49585787
0.50048195
0.5049016
0.50912238
0.51315031
0.5169917
0.52065299
0.52414065
0.52746112
0.53062074
0.53362569
0.53648203
0.53919561
0.54177214
0.5442171
0.5465358
0.54873337
0.55081475
0.55278468
0.55464776
0.5564084
0.55807084
0.55963916
0.5611173
0.56250903
0.56381798
0.56504762
0.56620131
0.56728224
0.56829346
0.56923786
0.57011825
0.57093727
0.5716974
0.572401
0.5730503
0.57364737
0.57419414
0.57469234
0.57514351
0.57554913
0.57591078
0.57623009
0.57650811
0.5767443
0.57693694
0.57708681
0.57720216
0.57729569
0.57736357
0.57735938
0.57721564
0.57696292
0.57686306
0.45005368
0.41757577
0.38804723
0.37335165
0.36265718
0.35801593
0.35758701
0.36045386
0.36561968
0.37232819
0.37999748
0.38820731
0.39666086
0.40515399
0.41354932
0.42175674
0.42971912
0.43740217
0.44478729
0.45186649
0.45863901
0.46510881
0.47128294
0.47717038
0.4827812
0.48812609
0.49321592
0.49806152
0.5026735
0.50706218
0.51123748
0.51520893
0.51898563
0.52257627
0.52598909
0.52923198
0.53231241
0.53523751
0.53801404
0.54064846
0.54314691
0.54551526
0.54775909
0.54988375
0.55189433
0.55379571
0.55559255
0.55728931
0.55889026
0.5603995
0.56182093
0.56315833
0.56441526
0.56559518
0.56670138
0.56773698
0.56870496
0.56960819
0.57044939
0.57123112
0.57195582
0.57262579
0.57324318
0.57380999
0.57432804
0.57479898
0.57522443
0.57560605
0.57594535
0.5762432
0.57649935
0.57671318
0.57688661
0.57702664
0.57714112
0.5772235
0.57723906
0.57714725
0.57698394
0.57692526
0.35510596
0.32149692
0.30402375
0.29968517
0.30117894
0.30754121
0.31677638
0.32762872
0.33922821
0.35102953
0.36270071
0.37404864
0.38496752
0.39540559
0.40534405
0.41478381
0.42373727
0.43222315
0.44026336
0.44788103
0.45509937
0.46194094
0.46842732
0.47457887
0.48041466
0.48595253
0.49120905
0.49619963
0.50093858
0.50543921
0.50971389
0.51377415
0.51763073
0.52129366
0.52477232
0.52807551
0.53121149
0.53418803
0.53701243
0.53969161
0.54223209
0.54464006
0.54692138
0.54908162
0.55112608
0.55305979
0.55488757
0.556614
0.55824345
0.5597801
0.56122796
0.56259083
0.56387236
0.56507607
0.56620526
0.56726313
0.56825269
0.56917684
0.57003836
0.57083986
0.57158381
0.57227257
0.57290835
0.5734932
0.57402901
0.57451757
0.5749606
0.57535976
0.57571651
0.57603174
0.57630566
0.57653864
0.57673294
0.57689352
0.57702432
0.57711922
0.57715654
0.57711541
0.57702217
0.57698776
0.2163489
0.21505831
0.22052916
0.23403271
0.25137476
0.26978432
0.28804873
0.30553031
0.32200263
0.33740475
0.35176308
0.36513878
0.377606
0.38924026
0.40011342
0.41029157
0.41983446
0.4287956
0.43722273
0.44515836
0.45264036
0.45970255
0.46637515
0.47268526
0.47865725
0.48431309
0.48967268
0.49475407
0.4995737
0.50414658
0.50848649
0.51260606
0.51651698
0.52023003
0.52375522
0.52710186
0.53027864
0.53329367
0.53615457
0.53886849
0.54144216
0.54388193
0.54619382
0.54838351
0.5504564
0.55241762
0.55427203
0.5560243
0.55767883
0.55923985
0.5607114
0.56209732
0.5634013
0.56462683
0.56577729
0.56685585
0.56786556
0.56880933
0.56968995
0.57051005
0.57127214
0.57197858
0.57263161
0.57323332
0.57378565
0.57429045
0.57474949
0.57516442
0.57553664
0.57586715
0.57615665
0.57640613
0.57661767
0.5767943
0.5769375
0.57704307
0.57710019
0.57710097
0.57706167
0.5770368
0.091776804
0.12178414
0.15925038
0.19294642
0.22309218
0.24962343
0.27316147
0.29417488
0.31308108
0.33020712
0.34581662
0.36012067
0.37329055
0.38546641
0.39676412
0.40728039
0.41709664
0.42628202
0.43489569
0.44298863
0.45060506
0.45778362
0.4645582
0.47095877
0.4770119
0.48274132
0.48816829
0.49331194
0.49818957
0.50281691
0.50720827
0.51137675
0.51533438
0.51909226
0.52266061
0.52604896
0.52926613
0.53232037
0.5352194
0.53797045
0.54058032
0.54305542
0.54540179
0.54762517
0.54973097
0.55172435
0.55361019
0.55539316
0.5570777
0.55866804
0.56016821
0.56158207
0.5629133
0.56416543
0.56534181
0.56644563
0.56747992
0.56844762
0.56935151
0.57019421
0.57097825
0.571706
0.57237968
0.57300139
0.57357309
0.57409665
0.57457382
0.57500619
0.57539512
0.57574169
0.57604688
0.57631194
0.57653863
0.57672868
0.57688243
0.57699741
0.57706885
0.57709433
0.5770869
0.57706466
0.012362863
0.28488917
0.46709417
0.51782648
0.52752949
0.52753574
0.52753891
0.52915404
0.53104932
0.53286558
0.53455181
0.53620118
0.53775481
0.53928032
0.54078509
0.54228081
0.54376752
0.54524775
0.54672348
0.54819533
0.54966331
0.55112704
0.5525859
0.55403898
0.55548521
0.55692334
0.55835204
0.55976987
0.56117534
0.56256691
0.56394298
0.56530193
0.56664212
0.56796186
0.56925946
0.57053319
0.5717813
0.57300204
0.57419363
0.57535425
0.57648209
0.5775753
0.57863203
0.57965039
0.58062852
0.58156454
0.58245659
0.58330284
0.5841015
0.58485083
0.58554915
0.58619489
0.58678658
0.58732291
0.5878027
0.58822493
0.58858883
0.58889374
0.58913932
0.58932511
0.58945045
0.58951502
0.58951882
0.58946194
0.58934365
0.58916369
0.58891824
0.58861016
0.58822532
0.58778899
0.58724287
0.58670055
0.58593193
0.58533849
0.58421671
0.58374764
0.58209097
0.58186612
0.57976804
0.57954853
0.047201154
0.36924555
0.52253823
0.54943036
0.54951865
0.54696639
0.54619785
0.54647708
0.54671703
0.5470169
0.5474167
0.54796773
0.54863147
0.54937722
0.5501801
0.55103584
0.55193922
0.55288782
0.55387749
0.55490367
0.55596227
0.55704935
0.55816118
0.55929409
0.56044456
0.56160914
0.56278451
0.56396744
0.56515478
0.56634349
0.56753061
0.56871325
0.56988861
0.57105394
0.57220657
0.57334387
0.57446329
0.5755623
0.57663841
0.5776892
0.57871225
0.5797052
0.58066569
0.58159142
0.58248013
0.5833296
0.58413767
0.58490225
0.5856213
0.58629292
0.58691529
0.58748671
0.58800567
0.58847079
0.58888089
0.58923498
0.58953232
0.58977234
0.58995477
0.59007925
0.5901452
0.59015244
0.59010111
0.58999138
0.58982269
0.5895947
0.5893041
0.58895294
0.58852908
0.58805404
0.58747689
0.58689736
0.58610928
0.58547922
0.58435206
0.58384204
0.58218575
0.5819443
0.57979122
0.5796496
0.093945263
0.44122079
0.54510634
0.5580155
0.55591458
0.55464531
0.55456921
0.55503068
0.55531041
0.55570243
0.55607856
0.5565181
0.556982
0.55749676
0.558052
0.55865129
0.55929118
0.55997229
0.56069278
0.56145037
0.56224286
0.56306789
0.56392292
0.56480531
0.56571228
0.56664101
0.5675886
0.56855212
0.56952859
0.57051503
0.57150845
0.57250584
0.5735042
0.57450056
0.57549194
0.57647539
0.57744798
0.5784068
0.579349
0.58027172
0.58117216
0.58204756
0.58289519
0.58371238
0.58449653
0.58524509
0.58595563
0.58662577
0.58725327
0.58783601
0.588372
0.58885943
0.58929667
0.5896823
0.5900151
0.59029406
0.59051845
0.59068778
0.59080181
0.59086026
0.59086263
0.59080882
0.59069911
0.5905337
0.59031217
0.59003414
0.58969663
0.58930113
0.58883681
0.58832274
0.58771263
0.58709714
0.58628616
0.58562385
0.58448443
0.58394028
0.58227497
0.58202146
0.57981651
0.57974346
0.16665751
0.49943367
0.55857513
0.56596196
0.56254751
0.5624254
0.56247202
0.56296134
0.56313056
0.56346936
0.56374614
0.56410093
0.56446661
0.56487289
0.56530236
0.56576124
0.56624755
0.5667637
0.56730906
0.56788302
0.56848498
0.56911412
0.56976945
0.57044972
0.57115351
0.5718792
0.57262499
0.5733889
0.57416878
0.57496236
0.57576721
0.57658079