/*--------------------------------*- C++ -*----------------------------------*\
| =========                 |                                                 |
| \\      /  F ield         | OpenFOAM: The Open Source CFD Toolbox           |
|  \\    /   O peration     | Version:  2512                                  |
|   \\  /    A nd           | Website:  www.openfoam.com                      |
|    \\/     M anipulation  |                                                 |
\*---------------------------------------------------------------------------*/
FoamFile
{
    version     2.0;
    format      ascii;
    arch        "LSB;label=32;scalar=64";
    class       volScalarField;
    location    "0.147";
    object      nut;
}
// * * * * * * * * * * * * * * * * * * * * * * * * * * * * * * * * * * * * * //

dimensions      [0 2 -1 0 0 0 0];

internalField   nonuniform List<scalar> 
16000
(
5.7909819e-07
1.1003375e-05
1.9637892e-05
2.3038551e-05
1.8537498e-05
2.5094718e-05
1.7853899e-05
2.4520066e-05
1.9078367e-05
2.6484241e-05
2.216062e-05
2.6132169e-05
2.3723307e-05
2.434673e-05
2.3475609e-05
2.3315551e-05
2.3042413e-05
2.2951656e-05
2.2940187e-05
2.3028128e-05
2.320772e-05
2.3477508e-05
2.3834726e-05
2.427916e-05
2.4812537e-05
2.5440464e-05
2.6170523e-05
2.7015028e-05
2.7989028e-05
2.910872e-05
3.0391854e-05
3.1862111e-05
3.3550126e-05
3.5493669e-05
3.7739251e-05
4.0342355e-05
4.3369074e-05
4.6898205e-05
5.1027324e-05
5.5877412e-05
6.1590391e-05
6.8333283e-05
7.6316755e-05
8.5798873e-05
9.7086684e-05
0.00011054834
0.00012664039
0.00014591917
0.00016906201
0.00019689441
0.00023042665
0.00027089816
0.00031982446
0.00037906286
0.00045088988
0.00053810687
0.00064417168
0.00077336983
0.00093104604
0.0010189001
0.0010188346
0.0010187257
0.00101858
0.0010183607
0.0010180637
0.0010176785
0.0010171988
0.0010166193
0.001015931
0.0010151173
0.0010141497
0.0010129754
0.0010115549
0.0010100897
0.0010088255
0.0010076891
0.0010066578
0.0010065097
0.0010050232
0.0010058656
4.9615807e-07
1.042509e-05
1.9555491e-05
2.0966406e-05
1.6757354e-05
2.2531962e-05
1.5877051e-05
2.1493009e-05
1.6886042e-05
2.3407532e-05
2.0096517e-05
2.358638e-05
2.1724263e-05
2.2084668e-05
2.139916e-05
2.1188436e-05
2.0958568e-05
2.0864898e-05
2.0856519e-05
2.0936553e-05
2.1102457e-05
2.1352392e-05
2.1684139e-05
2.2097581e-05
2.2593942e-05
2.3178444e-05
2.3857619e-05
2.4642536e-05
2.5547425e-05
2.6588089e-05
2.7781037e-05
2.9147891e-05
3.0716997e-05
3.2523321e-05
3.4610373e-05
3.7030324e-05
3.9845736e-05
4.3130649e-05
4.6975929e-05
5.1496101e-05
5.6827583e-05
6.3127625e-05
7.0594613e-05
7.9474622e-05
9.006263e-05
0.00010270862
0.00011784818
0.00013601394
0.00015785596
0.00018416702
0.0002159178
0.0002543024
0.00030078303
0.00035715536
0.00042562269
0.00050889941
0.00061034054
0.00073410123
0.00088534949
0.0010181759
0.0010181308
0.0010179999
0.00101784
0.0010176087
0.0010173012
0.0010169067
0.0010164179
0.0010158294
0.0010151331
0.0010143133
0.0010133447
0.0010121807
0.0010107834
0.001009387
0.0010081841
0.0010070817
0.0010061706
0.0010057458
0.0010048797
0.001005789
4.3847552e-07
9.9870158e-06
1.8546493e-05
1.91759e-05
1.5037812e-05
1.9889507e-05
1.4153991e-05
1.8703137e-05
1.5198829e-05
2.0546458e-05
1.8337679e-05
2.1008991e-05
1.9691152e-05
1.9786635e-05
1.925646e-05
1.9026804e-05
1.8832864e-05
1.8747315e-05
1.8744672e-05
1.8821621e-05
1.8977102e-05
1.9209667e-05
1.9517397e-05
1.9900489e-05
2.0359836e-05
2.0900499e-05
2.1528324e-05
2.2253352e-05
2.3088859e-05
2.4050276e-05
2.5153304e-05
2.641795e-05
2.7870682e-05
2.9544058e-05
3.1478943e-05
3.3724468e-05
3.6340083e-05
3.9396125e-05
4.2977854e-05
4.7193367e-05
5.2174608e-05
5.8071367e-05
6.5071571e-05
7.3410172e-05
8.3372629e-05
9.5294325e-05
0.00010959336
0.00012678268
0.00014748974
0.00017248101
0.0002026946
0.00023928745
0.00028367782
0.00033761074
0.00040322948
0.00048317637
0.00058072087
0.00069991657
0.00084579834
0.001017498
0.0010174732
0.0010173158
0.0010171337
0.0010168826
0.0010165572
0.0010161462
0.0010156414
0.0010150376
0.0010143271
0.0010134944
0.0010125165
0.001011354
0.0010099723
0.001008653
0.0010075163
0.00100648
0.0010056287
0.0010051114
0.0010046206
0.0010054589
3.9175985e-07
9.662406e-06
1.7649318e-05
1.8410789e-05
1.3572723e-05
1.7592311e-05
1.2630326e-05
1.6357301e-05
1.3696174e-05
1.8113876e-05
1.6754984e-05
1.8726684e-05
1.7816031e-05
1.7718435e-05
1.730531e-05
1.7077117e-05
1.6914462e-05
1.6841267e-05
1.6846077e-05
1.6922398e-05
1.7069914e-05
1.7287711e-05
1.7574229e-05
1.7930123e-05
1.8356109e-05
1.8857228e-05
1.943889e-05
2.0110329e-05
2.0883911e-05
2.1774767e-05
2.2798071e-05
2.3972464e-05
2.5322894e-05
2.6879855e-05
2.8681979e-05
3.0775787e-05
3.3218049e-05
3.607622e-05
3.9431132e-05
4.338492e-05
4.8066131e-05
5.3618956e-05
6.022299e-05
6.8103349e-05
7.7538715e-05
8.885332e-05
0.00010245153
0.0001188311
0.00013860221
0.00016251218
0.00019147454
0.00022661927
0.00026933263
0.0003213239
0.00038469467
0.00046203769
0.00055656367
0.00067225892
0.00081407696
0.00098816999
0.0010168594
0.0010166725
0.0010164633
0.0010161879
0.0010158403
0.0010154089
0.0010148846
0.0010142617
0.0010135334
0.0010126845
0.0010116933
0.0010105298
0.0010091593
0.0010079174
0.0010068514
0.0010058865
0.001005068
0.0010045171
0.00100427
0.0010048489
3.4557476e-07
9.4283263e-06
1.6889832e-05
1.8492668e-05
1.3440574e-05
1.5581531e-05
1.1292783e-05
1.4343653e-05
1.2403258e-05
1.60208e-05
1.5349419e-05
1.6672125e-05
1.6066695e-05
1.5838201e-05
1.5511307e-05
1.5297576e-05
1.5159851e-05
1.509848e-05
1.5108562e-05
1.5182903e-05
1.5321527e-05
1.5524209e-05
1.5789788e-05
1.6119413e-05
1.6513765e-05
1.69779e-05
1.751691e-05
1.8139381e-05
1.8856776e-05
1.968387e-05
2.0635503e-05
2.1729182e-05
2.2988604e-05
2.4442485e-05
2.6127548e-05
2.8088051e-05
3.0378387e-05
3.3063702e-05
3.6221548e-05
3.994842e-05
4.4370047e-05
4.9626493e-05
5.5890922e-05
6.3379273e-05
7.2365194e-05
8.3164347e-05
9.6169881e-05
0.00011186725
0.00013085249
0.00015385825
0.00018177819
0.00021572109
0.00025704765
0.00030743901
0.00036896434
0.00044417775
0.0005362441
0.00064909695
0.0007876276
0.00095790543
0.0010162902
0.0010160711
0.0010158294
0.0010155247
0.0010151501
0.0010146937
0.0010141457
0.0010134997
0.0010127497
0.0010118811
0.0010108716
0.0010097036
0.0010083533
0.0010071894
0.0010061972
0.0010053039
0.0010045136
0.001003973
0.0010038996
0.0010041352
3.1267598e-07
9.2722887e-06
1.6277547e-05
1.8221926e-05
1.3241205e-05
1.382763e-05
1.0741496e-05
1.2675195e-05
1.1709064e-05
1.4302618e-05
1.4120479e-05
1.4866019e-05
1.4463566e-05
1.4157189e-05
1.3884391e-05
1.3686833e-05
1.3565344e-05
1.3511688e-05
1.352366e-05
1.3594235e-05
1.3723433e-05
1.3911584e-05
1.415778e-05
1.4463435e-05
1.4829405e-05
1.5260653e-05
1.5762031e-05
1.6341636e-05
1.7010058e-05
1.7781692e-05
1.8671217e-05
1.9695237e-05
2.087647e-05
2.2242176e-05
2.3827529e-05
2.5674941e-05
2.7836824e-05
3.0376524e-05
3.3369558e-05
3.6907604e-05
4.1113849e-05
4.6125753e-05
5.2112446e-05
5.928161e-05
6.7903743e-05
7.8288951e-05
9.0822149e-05
0.00010598016
0.00012434862
0.00014665119
0.00017376755
0.00020679277
0.00024707066
0.00029626439
0.00035642358
0.00043007888
0.00052036732
0.00063119087
0.00076740688
0.00093504115
0.0010157577
0.0010155037
0.0010152251
0.0010148867
0.0010144809
0.0010139958
0.0010134208
0.0010127485
0.0010119734
0.0010110824
0.0010100514
0.001008874
0.0010075597
0.0010064744
0.0010055583
0.0010047367
0.0010039787
0.0010034507
0.0010034697
0.0010035051
2.7414843e-07
9.1801649e-06
1.5796796e-05
1.7196276e-05
1.3084601e-05
1.2218262e-05
1.0733335e-05
1.1671849e-05
1.1203563e-05
1.2716091e-05
1.2998999e-05
1.3260593e-05
1.296373e-05
1.2624868e-05
1.2384166e-05
1.2204164e-05
1.2095935e-05
1.2049773e-05
1.2064115e-05
1.2132475e-05
1.22545e-05
1.2431008e-05
1.2661338e-05
1.2870457e-05
1.3203416e-05
1.3598892e-05
1.4061129e-05
1.4597534e-05
1.5217653e-05
1.5935173e-05
1.6764577e-05
1.77216e-05
1.882807e-05
2.0109867e-05
2.1600744e-05
2.3341445e-05
2.5382532e-05
2.7785593e-05
3.0624865e-05
3.4244645e-05
3.8277867e-05
4.309456e-05
4.8862232e-05
5.5781517e-05
6.4120824e-05
7.4187616e-05
8.6361461e-05
0.0001011139
0.00011902332
0.00014080963
0.00016734381
0.00019971391
0.00023925459
0.00028762001
0.00034685136
0.00041946928
0.00050859864
0.00061812785
0.00075290278
0.00091893784
0.0010152587
0.0010149673
0.0010146478
0.0010142718
0.0010138311
0.0010133139
0.0010127088
0.0010120074
0.0010112042
0.0010102888
0.0010092349
0.0010080405
0.0010067884
0.0010057816
0.0010049415
0.0010041916
0.0010034758
0.0010029621
0.0010029809
0.0010029104
2.5311267e-07
9.1274558e-06
1.5376556e-05
1.5600916e-05
1.1726934e-05
1.0643397e-05
9.0508059e-06
1.0368475e-05
9.4824133e-06
1.1456611e-05
1.1859047e-05
1.1777671e-05
1.152643e-05
1.1198387e-05
1.0985332e-05
1.0828072e-05
1.0735873e-05
1.07003e-05
1.0654838e-05
1.0708361e-05
1.0815226e-05
1.0975407e-05
1.1187055e-05
1.1449748e-05
1.1767629e-05
1.2143734e-05
1.258247e-05
1.3091216e-05
1.3679008e-05
1.4359137e-05
1.5146322e-05
1.6055862e-05
1.7109189e-05
1.8331337e-05
1.9755257e-05
2.1420654e-05
2.3377005e-05
2.5684831e-05
2.8417961e-05
3.1666275e-05
3.5539303e-05
4.0175747e-05
4.5743304e-05
5.2879183e-05
6.1017328e-05
7.0862126e-05
8.2791038e-05
9.7273581e-05
0.00011488423
0.00013634475
0.00016252295
0.00019450704
0.00023363093
0.00028154943
0.00034030725
0.00041242967
0.00050104664
0.000610053
0.00074430666
0.00090984369
0.0010147869
0.0010144555
0.001014092
0.0010136751
0.0010131964
0.0010126443
0.0010120067
0.0010112742
0.0010104405
0.0010094984
0.0010084238
0.0010072049
0.0010060451
0.0010051168
0.0010043513
0.0010036727
0.0010030096
0.0010025148
0.0010025116
0.0010023349
2.302536e-07
9.0918168e-06
1.4920301e-05
1.3662545e-05
9.6092236e-06
9.483329e-06
7.4872495e-06
8.9045407e-06
9.0584941e-06
1.0261871e-05
1.0707738e-05
1.0401597e-05
1.0174557e-05
9.8806607e-06
9.6946714e-06
9.4947949e-06
9.3949745e-06
9.3564299e-06
9.3721425e-06
9.4387955e-06
9.5514588e-06
9.7131638e-06
9.9213371e-06
1.0176429e-05
1.0482502e-05
1.0843404e-05
1.1263652e-05
1.1750686e-05
1.2313217e-05
1.2964129e-05
1.3718478e-05
1.4591358e-05
1.5604089e-05
1.6781127e-05
1.8154936e-05
1.9764608e-05
2.1658971e-05
2.3897978e-05
2.6554896e-05
2.9718871e-05
3.349985e-05
3.8034604e-05
4.3493668e-05
5.0074742e-05
5.8031231e-05
6.7678338e-05
8.0095925e-05
9.4442287e-05
0.00011191242
0.00013323528
0.00015928143
0.00019114636
0.00023017181
0.0002780231
0.00033676056
0.00040892909
0.00049768156
0.00060693982
0.00074159698
0.00090774197
0.0010143366
0.001013963
0.0010135532
0.0010130928
0.0010125736
0.0010119842
0.0010113122
0.0010105472
0.0010096816
0.0010087101
0.0010076199
0.0010063919
0.0010053362
0.0010044862
0.0010037924
0.0010031839
0.0010025831
0.001002111
0.001002052
0.0010017427
2.0644254e-07
9.0512652e-06
1.3207588e-05
1.1945495e-05
7.7676697e-06
8.4381827e-06
6.783649e-06
8.0143237e-06
8.3827104e-06
9.1725455e-06
9.5685028e-06
9.1501986e-06
8.9328351e-06
8.5939407e-06
8.4008141e-06
8.2727126e-06
8.2065837e-06
8.1934492e-06
8.2262913e-06
8.3055567e-06
8.4255551e-06
8.5880651e-06
8.7943008e-06
9.0441126e-06
9.341838e-06
9.6917658e-06
1.0098596e-05
1.0569969e-05
1.111441e-05
1.1744434e-05
1.2475476e-05
1.3322713e-05
1.4307548e-05
1.5454106e-05
1.6794653e-05
1.8368035e-05
2.0222841e-05
2.241896e-05
2.5029994e-05
2.8145539e-05
3.1875695e-05
3.6356922e-05
4.1762983e-05
4.8291826e-05
5.6199335e-05
6.5802992e-05
7.7494194e-05
9.1732386e-05
0.00011009785
0.00013147215
0.00015761229
0.00018962812
0.00022887842
0.00027704943
0.00033622991
0.00040900031
0.00049855551
0.000608867
0.00074488773
0.00091278965
0.0010139015
0.0010134838
0.001013026
0.0010125203
0.0010119586
0.0010113303
0.0010106227
0.0010098244
0.0010089267
0.0010079236
0.0010068196
0.001005626
0.0010046667
0.0010038945
0.001003269
0.0010027278
0.0010021934
0.0010017452
0.0010016129
0.0010012182
1.900486e-07
9.0002335e-06
1.0471813e-05
9.8186202e-06
6.4315865e-06
7.5101583e-06
6.1892933e-06
7.1970887e-06
7.8356224e-06
8.1768994e-06
8.4493315e-06
7.9253388e-06
7.6640772e-06
7.424786e-06
7.2792328e-06
7.1902997e-06
7.1523993e-06
7.1619906e-06
7.2116114e-06
7.3005072e-06
7.4271111e-06
7.5927851e-06
7.7991289e-06
8.0466138e-06
8.339694e-06
8.6831307e-06
9.0819352e-06
9.543994e-06
1.007783e-05
1.0695641e-05
1.1354761e-05
1.2177744e-05
1.3136669e-05
1.4255277e-05
1.5565609e-05
1.7106283e-05
1.8925709e-05
2.1083757e-05
2.3654481e-05
2.6728202e-05
3.0416174e-05
3.5129594e-05
4.0538096e-05
4.7081512e-05
5.5018326e-05
6.4669501e-05
7.6437721e-05
9.0793521e-05
0.0001083303
0.00012978781
0.00015750089
0.00018994052
0.00022974333
0.0002786274
0.00033872348
0.00041266451
0.00050370769
0.00061589884
0.00075427785
0.00092512856
0.0010134756
0.0010130121
0.0010125057
0.0010119535
0.0010113482
0.0010106798
0.0010099358
0.0010091039
0.0010081751
0.0010071414
0.0010060165
0.0010049083
0.0010040418
0.0010033458
0.0010027847
0.0010023069
0.0010018411
0.001001421
0.0010012114
0.0010008227
1.7476829e-07
8.9472299e-06
8.2649457e-06
8.3592471e-06
5.7575522e-06
6.6505044e-06
5.6773176e-06
6.4823113e-06
7.2766429e-06
7.2476303e-06
7.2362338e-06
6.789503e-06
6.5752166e-06
6.3969547e-06
6.2920212e-06
6.2361121e-06
6.2242974e-06
6.2520378e-06
6.3160698e-06
6.4159574e-06
6.5501633e-06
6.7204817e-06
6.9293889e-06
7.1778551e-06
7.4704631e-06
7.7787946e-06
8.1684084e-06
8.6208387e-06
9.1444749e-06
9.7510704e-06
1.0454763e-05
1.1273943e-05
1.2229346e-05
1.3344794e-05
1.4652647e-05
1.6191964e-05
1.80118e-05
2.017289e-05
2.2750855e-05
2.5838037e-05
2.9548449e-05
3.4024575e-05
3.9441002e-05
4.6007114e-05
5.3985918e-05
6.4258119e-05
7.6213803e-05
9.0817422e-05
0.00010867332
0.00013054456
0.00015736353
0.00019207208
0.00023276118
0.00028276025
0.00034425622
0.00041995293
0.00051319165
0.00062811965
0.00076989493
0.00094494137
0.0010130531
0.0010125426
0.0010119876
0.0010113885
0.001010739
0.0010100299
0.0010092492
0.0010083839
0.001007425
0.0010063682
0.0010052212
0.0010042422
0.0010034648
0.0010028431
0.0010023426
0.0010019225
0.0010015262
0.0010011477
0.0010008764
0.0010004736
1.6129868e-07
8.8685987e-06
6.5755861e-06
7.3426022e-06
5.1311866e-06
5.8806236e-06
5.2341645e-06
5.845576e-06
6.6097066e-06
6.1947157e-06
6.1405635e-06
5.7954811e-06
5.6245509e-06
5.4959879e-06
5.4260886e-06
5.3986577e-06
5.4091652e-06
5.4550813e-06
5.5333589e-06
5.6444433e-06
5.7876779e-06
5.96499e-06
6.1532248e-06
6.4005813e-06
6.6918979e-06
7.0313751e-06
7.4260675e-06
7.8835186e-06
8.4123099e-06
9.024371e-06
9.7339743e-06
1.0559279e-05
1.1522255e-05
1.2647101e-05
1.3966757e-05
1.5521091e-05
1.7360335e-05
1.9546585e-05
2.2157723e-05
2.52891e-05
2.9057674e-05
3.3609211e-05
3.9127333e-05
4.5826808e-05
5.3978994e-05
6.3921456e-05
7.6073592e-05
9.0942509e-05
0.00011011416
0.00013258765
0.00016016447
0.00019403565
0.00023791879
0.00028944317
0.00035283447
0.00043088743
0.00052705106
0.00064560276
0.00079185596
0.00097240538
0.0010126287
0.0010120703
0.0010114677
0.001010822
0.0010101283
0.0010093784
0.0010085614
0.0010076637
0.0010066749
0.0010056049
0.0010045023
0.0010036291
0.0010029382
0.0010023883
0.0010019453
0.0010015757
0.0010012426
0.00100092
0.001000619
0.0010001859
1.4943804e-07
8.7352384e-06
5.2786836e-06
6.4200063e-06
4.5684573e-06
5.1932973e-06
4.855784e-06
5.1949409e-06
5.773911e-06
5.2798626e-06
5.1801158e-06
4.9268714e-06
4.7966213e-06
4.7095825e-06
4.6706861e-06
4.6688815e-06
4.7003189e-06
4.7634987e-06
4.8563635e-06
4.9611699e-06
5.1095132e-06
5.2919665e-06
5.5108244e-06
5.7690718e-06
6.0709868e-06
6.4211211e-06
6.8264188e-06
7.2950156e-06
7.8356939e-06
8.4605312e-06
9.1839223e-06
1.0024263e-05
1.0954352e-05
1.2088612e-05
1.3419929e-05
1.498895e-05
1.6847285e-05
1.9058436e-05
2.1702576e-05
2.4878554e-05
2.8707246e-05
3.3591867e-05
3.9261832e-05
4.6155584e-05
5.4553893e-05
6.4804121e-05
7.7345871e-05
9.2708854e-05
0.00011154197
0.00013588678
0.00016445065
0.00019955351
0.00024271588
0.00029865737
0.00036444919
0.00044547217
0.00054530989
0.00066839899
0.00082025147
0.0010076749
0.0010121974
0.0010115913
0.0010109427
0.0010102515
0.0010095142
0.0010087239
0.0010078707
0.001006943
0.0010059287
0.0010048405
0.0010038478
0.0010030724
0.0010024625
0.0010019816
0.0010015944
0.0010012686
0.0010009858
0.0010007285
0.0010004515
0.00099998897
1.3892218e-07
8.5158241e-06
4.3020828e-06
5.594793e-06
4.0641561e-06
4.5821119e-06
4.5235624e-06
4.4891807e-06
4.9333239e-06
4.4659328e-06
4.3494973e-06
4.1717164e-06
4.079719e-06
4.0283653e-06
4.0174787e-06
4.0393011e-06
4.0907912e-06
4.154731e-06
4.2575399e-06
4.390901e-06
4.5556976e-06
4.7534656e-06
4.9871499e-06
5.2599005e-06
5.5765182e-06
5.941787e-06
6.3626948e-06
6.8272866e-06
7.3799495e-06
8.0173945e-06
8.7540756e-06
9.6084288e-06
1.060302e-05
1.1766227e-05
1.3131935e-05
1.4742151e-05
1.6650837e-05
1.8923904e-05
2.1644726e-05
2.4917162e-05
2.8867653e-05
3.3655537e-05
3.9473602e-05
4.6559417e-05
5.520579e-05
6.6325344e-05
7.9360938e-05
9.5341527e-05
0.00011494808
0.0001390208
0.00017017924
0.00020678879
0.0002518248
0.00030724354
0.00037905987
0.00046367427
0.00056794836
0.00069650797
0.00085510745
0.0010123808
0.0010117548
0.0010111027
0.0010104102
0.0010096754
0.0010088958
0.001008066
0.001007177
0.0010062203
0.0010051931
0.0010041231
0.0010032581
0.0010025729
0.0010020377
0.0010016216
0.0010012894
0.0010010036
0.0010007548
0.0010005559
0.0010003524
0.00099987863
1.2968807e-07
8.2131222e-06
3.6850084e-06
4.8607157e-06
3.6141637e-06
4.0397907e-06
4.0070057e-06
3.8510851e-06
4.1253112e-06
3.7479605e-06
3.6387826e-06
3.5210092e-06
3.4646283e-06
3.4447702e-06
3.4596392e-06
3.4909238e-06
3.5559571e-06
3.6505639e-06
3.7739623e-06
3.9263983e-06
4.109337e-06
4.3247918e-06
4.5760861e-06
4.8666279e-06
5.1898372e-06
5.5703766e-06
6.0068698e-06
6.5074185e-06
7.0822266e-06
7.74347e-06
8.5060006e-06
9.3890235e-06
1.0416053e-05
1.1616567e-05
1.3026804e-05
1.4690336e-05
1.6664028e-05
1.9016915e-05
2.183582e-05
2.523079e-05
2.9333354e-05
3.43109e-05
4.0368786e-05
4.7755273e-05
5.6779752e-05
6.7821988e-05
8.2071986e-05
9.879315e-05
0.00011931828
0.00014453915
0.0001755305
0.00021567143
0.00026290822
0.00032105888
0.00039265695
0.0004853981
0.00059487172
0.00072984173
0.0008963402
0.0010119592
0.0010112973
0.0010106025
0.001009869
0.0010090931
0.0010082731
0.0010074053
0.0010064824
0.0010054975
0.0010044618
0.0010034923
0.0010027315
0.0010021303
0.0010016631
0.0010013062
0.0010010271
0.0010007814
0.0010005556
0.0010003905
0.0010002512
0.00099983415
1.2176658e-07
7.3843887e-06
3.2357615e-06
4.2040561e-06
3.2138231e-06
3.4078588e-06
3.5495929e-06
3.2667334e-06
3.395103e-06
3.1248865e-06
3.0376786e-06
2.9674978e-06
2.9436875e-06
2.9523195e-06
2.9763113e-06
3.037716e-06
3.1275329e-06
3.244553e-06
3.3888536e-06
3.5613678e-06
3.7640691e-06
3.9992296e-06
4.2623833e-06
4.5706487e-06
4.9232474e-06
5.3258504e-06
5.7852927e-06
6.3099808e-06
6.9103418e-06
7.5993347e-06
8.3922992e-06
9.3092694e-06
1.0374837e-05
1.1619964e-05
1.3027093e-05
1.4740168e-05
1.6774497e-05
1.9202729e-05
2.2248532e-05
2.5790102e-05
3.0074647e-05
3.5277546e-05
4.1617824e-05
4.9357114e-05
5.8820638e-05
7.0411173e-05
8.462309e-05
0.00010206339
0.00012458124
0.00015111797
0.00018374276
0.00022387212
0.00027584137
0.0003371094
0.00041256505
0.00051045416
0.00062587012
0.00076817707
0.00094371566
0.001011523
0.0010108245
0.0010100901
0.0010093188
0.0010085054
0.0010076476
0.0010067434
0.0010057893
0.0010047858
0.0010037641
0.0010029343
0.001002268
0.0010017431
0.0010013375
0.0010010333
0.0010008026
0.001000598
0.0010003964
0.0010002536
0.0010001687
0.00099993665
1.1537328e-07
5.3597511e-06
2.8508702e-06
3.6089493e-06
2.865741e-06
2.8251848e-06
3.0935182e-06
2.7373605e-06
2.7682341e-06
2.5931468e-06
2.5349805e-06
2.5038697e-06
2.5024006e-06
2.5302092e-06
2.5899185e-06
2.6774311e-06
2.7908184e-06
2.9298572e-06
3.0953526e-06
3.2886677e-06
3.5070878e-06
3.7614707e-06
4.0519396e-06
4.3825282e-06
4.7580711e-06
5.1844461e-06
5.6688134e-06
6.2199168e-06
6.8485201e-06
7.5515584e-06
8.3729976e-06
9.3213194e-06
1.0422119e-05
1.1707471e-05
1.3217496e-05
1.5002362e-05
1.7124107e-05
1.9660406e-05
2.2707655e-05
2.638498e-05
3.0840333e-05
3.6517094e-05
4.3177635e-05
5.1316944e-05
6.1277158e-05
7.348376e-05
8.8460331e-05
0.00010685173
0.0001306394
0.00015864469
0.00019309095
0.00023547339
0.00029043563
0.00035517392
0.00043493012
0.00053321985
0.00066058106
0.00081110354
0.00099677714
0.0010110739
0.0010103377
0.0010095668
0.0010087607
0.0010079139
0.0010070222
0.0010060847
0.0010051021
0.0010040883
0.0010031688
0.0010024444
0.0010018652
0.0010014088
0.0010010592
0.0010008013
0.0010006112
0.0010004458
0.0010002779
0.0010001662
0.0010001257
0.0010000025
1.1015893e-07
3.9861413e-06
2.5051796e-06
3.0585693e-06
2.4289927e-06
2.335083e-06
2.6163204e-06
2.2667116e-06
2.2477895e-06
2.1470582e-06
2.1210702e-06
2.1168994e-06
2.1448458e-06
2.2042076e-06
2.2908588e-06
2.4024145e-06
2.5381561e-06
2.6985459e-06
2.8822275e-06
3.0951502e-06
3.3383267e-06
3.6145883e-06
3.9273908e-06
4.2809449e-06
4.6803352e-06
5.1316961e-06
5.6424799e-06
6.2124613e-06
6.8678423e-06
7.616058e-06
8.4743883e-06
9.4643026e-06
1.0612862e-05
1.1954056e-05
1.35305e-05
1.5395318e-05
1.7614554e-05
2.0270398e-05
2.3465132e-05
2.7325702e-05
3.2009459e-05
3.7710483e-05
4.500118e-05
5.357994e-05
6.408559e-05
7.6968071e-05
9.2781603e-05
0.00011221012
0.00013609735
0.00016696837
0.00020339589
0.0002482314
0.0003034408
0.00037493657
0.00045937082
0.00056345409
0.00069845315
0.0008579714
0.001011373
0.0010106139
0.0010098404
0.0010090356
0.0010081974
0.0010073211
0.0010064006
0.0010054344
0.0010044351
0.001003442
0.0010026524
0.0010020209
0.0010015193
0.0010011239
0.0010008245
0.0010006081
0.0010004502
0.0010003161
0.0010001851
0.001000109
0.001000095
0.0010000227
1.0459486e-07
3.5218476e-06
2.1396769e-06
2.5508403e-06
2.070626e-06
1.9246186e-06
2.129374e-06
1.8563016e-06
1.8271046e-06
1.7830287e-06
1.7848767e-06
1.8127652e-06
1.8732072e-06
1.9598711e-06
2.0703213e-06
2.2036375e-06
2.3600283e-06
2.5386614e-06
2.7442395e-06
2.9778855e-06
3.2421229e-06
3.5400152e-06
3.8752299e-06
4.2521498e-06
4.6760408e-06
5.1532624e-06
5.6852463e-06
6.2913061e-06
6.9788571e-06
7.7623639e-06
8.6600223e-06
9.6945524e-06
1.0894535e-05
1.2295904e-05
1.3943899e-05
1.5895165e-05
1.8220055e-05
2.1005785e-05
2.4360855e-05
2.8419421e-05
3.3348063e-05
3.9637617e-05
4.7033582e-05
5.6081694e-05
6.7169597e-05
8.0772939e-05
9.7478049e-05
0.00011800839
0.000144584
0.00017589375
0.00021442051
0.00026185535
0.00032028309
0.00039596837
0.00048537309
0.00059562142
0.00073870545
0.00090783068
0.0010109289
0.0010101452
0.0010093382
0.0010085021
0.0010076335
0.0010067301
0.0010057873
0.0010047996
0.0010037877
0.001002906
0.001002208
0.0010016577
0.0010012251
0.0010008849
0.0010006281
0.0010004498
0.0010003182
0.0010002064
0.0010001057
0.0010000657
0.0010000765
0.0010000408
1.0052962e-07
3.037505e-06
1.8241988e-06
2.0395951e-06
1.7745919e-06
1.5746105e-06
1.6825883e-06
1.5112684e-06
1.4984805e-06
1.4990058e-06
1.5285023e-06
1.5898414e-06
1.6770368e-06
1.7865641e-06
1.9174793e-06
2.0699807e-06
2.2440209e-06
2.4426884e-06
2.6675595e-06
2.9209569e-06
3.2056585e-06
3.5249139e-06
3.8825314e-06
4.283018e-06
4.7317778e-06
5.2317982e-06
5.796381e-06
6.43303e-06
7.1538194e-06
7.9739009e-06
8.9125058e-06
9.9936694e-06
1.1247653e-05
1.2712457e-05
1.4435886e-05
1.6478062e-05
1.8914167e-05
2.1836535e-05
2.5360502e-05
2.9628114e-05
3.5044546e-05
4.1420167e-05
4.9209587e-05
5.8745876e-05
7.0437628e-05
8.478842e-05
0.00010241804
0.00012409171
0.00015211191
0.00018517062
0.00022586375
0.00027598018
0.00033773202
0.00041769815
0.00051224412
0.00062888172
0.0007802944
0.0009594065
0.0010104841
0.0010096745
0.0010088373
0.0010079734
0.0010070772
0.0010061467
0.0010051843
0.0010041992
0.0010032224
0.0010024538
0.0010018343
0.0010013483
0.0010009741
0.0010006885
0.0010004643
0.0010003196
0.0010002113
0.0010001172
0.0010000403
0.0010000302
0.0010000626
0.0010000521
9.811567e-08
2.5361647e-06
1.5500608e-06
1.5527051e-06
1.5042438e-06
1.277059e-06
1.3206361e-06
1.2377128e-06
1.2534018e-06
1.2852465e-06
1.3481602e-06
1.4353098e-06
1.5436495e-06
1.6718417e-06
1.8201394e-06
1.9895507e-06
2.1809401e-06
2.3972705e-06
2.6403772e-06
2.9128081e-06
3.2174875e-06
3.5577847e-06
3.9376112e-06
4.3615725e-06
4.8351776e-06
5.3651249e-06
5.9596718e-06
6.6290832e-06
7.3777144e-06
8.2349334e-06
9.2152035e-06
1.0343958e-05
1.1653256e-05
1.3183357e-05
1.4984672e-05
1.7190001e-05
1.9759116e-05
2.284409e-05
2.6567709e-05
3.1081507e-05
3.6572198e-05
4.3269505e-05
5.1457352e-05
6.1485421e-05
7.3784641e-05
8.8886461e-05
0.00010744522
0.0001314058
0.0001596922
0.00019450025
0.00023735815
0.00029015498
0.00035859101
0.00043942064
0.00053911965
0.00066217906
0.00082189865
0.0010108883
0.0010100485
0.0010092119
0.0010083467
0.0010074573
0.0010065387
0.0010055858
0.0010045978
0.0010036044
0.0010027596
0.0010020758
0.0010015271
0.0010010918
0.0010007577
0.001000527
0.0010003299
0.0010002112
0.0010001237
0.0010000472
0.00099999203
0.0010000044
0.0010000551
0.0010000585
9.8142004e-08
2.0403294e-06
1.3193018e-06
1.1796961e-06
1.2355975e-06
1.0294288e-06
1.0558191e-06
1.036221e-06
1.0805438e-06
1.1417378e-06
1.2283869e-06
1.3347006e-06
1.4596158e-06
1.6032829e-06
1.7667632e-06
1.9515561e-06
2.1591909e-06
2.3922319e-06
2.6528555e-06
2.9437208e-06
3.2678378e-06
3.628654e-06
4.030166e-06
4.4770784e-06
4.9750247e-06
5.5308655e-06
6.153087e-06
6.8523013e-06
7.6418689e-06
8.538687e-06
9.5641197e-06
1.0745232e-05
1.2116139e-05
1.3719755e-05
1.5609822e-05
1.7853408e-05
2.0534002e-05
2.3755508e-05
2.7646553e-05
3.2366414e-05
3.8111887e-05
4.5125155e-05
5.3702545e-05
6.4211303e-05
7.7102783e-05
9.3703056e-05
0.00011330644
0.00013740638
0.00016705425
0.00020354946
0.00024849658
0.00030673274
0.00037551166
0.00046032969
0.00056500349
0.0007010222
0.0008619574
0.0010104842
0.0010096318
0.0010087698
0.0010078795
0.0010069639
0.0010060231
0.001005059
0.0010040769
0.0010031122
0.0010023669
0.0010017604
0.0010012764
0.0010008916
0.0010005954
0.0010003727
0.0010002227
0.0010001205
0.0010000501
0.00099999179
0.00099995913
0.00099998816
0.0010000487
0.0010000571
1.0142533e-07
1.5832199e-06
1.130064e-06
9.0770946e-07
1.0793488e-06
8.25007e-07
8.7415196e-07
8.9943553e-07
9.6622575e-07
1.0501327e-06
1.1537426e-06
1.2746403e-06
1.4132179e-06
1.5704706e-06
1.7478666e-06
1.9471205e-06
2.1701807e-06
2.4190764e-06
2.69644e-06
3.0049104e-06
3.347562e-06
3.7279144e-06
4.1500506e-06
4.6187831e-06
5.1398826e-06
5.7203884e-06
6.3690259e-06
7.0967771e-06
7.9175116e-06
8.8488487e-06
9.9130896e-06
1.113856e-05
1.2560998e-05
1.422539e-05
1.6188085e-05
1.8519432e-05
2.1306919e-05
2.4659042e-05
2.8710041e-05
3.3625742e-05
3.988119e-05
4.7247336e-05
5.6255803e-05
6.7291538e-05
8.0827933e-05
9.7448409e-05
0.00011787262
0.0001429886
0.0001738896
0.00021391302
0.00026112466
0.00031929109
0.0003910025
0.00047947634
0.00059445743
0.00073043637
0.00089856077
0.0010101026
0.0010092378
0.0010083584
0.0010074509
0.0010065144
0.0010055476
0.0010045563
0.0010035706
0.0010027222
0.0010020414
0.0010014966
0.0010010634
0.0010007202
0.0010004662
0.0010002634
0.0010001339
0.0010000464
0.00099998686
0.00099994436
0.00099993368
0.00099997912
0.0010000469
0.0010000573
1.0812126e-07
1.2366446e-06
9.6765321e-07
7.6473237e-07
7.708394e-07
7.0549231e-07
7.5163232e-07
8.1207658e-07
8.9565659e-07
9.9525622e-07
1.1115802e-06
1.2445448e-06
1.3952131e-06
1.5648946e-06
1.7551768e-06
1.9678313e-06
2.2048396e-06
2.4684095e-06
2.7610141e-06
3.0854361e-06
3.4448333e-06
3.8428264e-06
4.283624e-06
4.7721988e-06
5.314533e-06
5.9158408e-06
6.5882117e-06
7.3416535e-06
8.1978656e-06
9.1637237e-06
1.0267537e-05
1.153901e-05
1.3015592e-05
1.4744358e-05
1.6784231e-05
1.9208673e-05
2.2108965e-05
2.5598223e-05
2.9816302e-05
3.4935864e-05
4.116985e-05
4.8780707e-05
5.8091598e-05
6.9498675e-05
8.3491808e-05
0.00010067398
0.00012287306
0.00014903931
0.00018122478
0.00022084133
0.0002696353
0.00032977318
0.00040394328
0.00050019784
0.00061410045
0.00075489208
0.00092910463
0.001009757
0.0010088777
0.0010079827
0.001007064
0.0010061198
0.0010051486
0.0010041564
0.0010031822
0.001002413
0.0010017869
0.0010012879
0.0010008928
0.0010005841
0.0010003712
0.0010001755
0.001000061
0.00099998694
0.00099993344
0.00099990137
0.00099990587
0.00099996453
0.0010000426
0.0010000554
1.2252505e-07
1.208575e-06
8.0928023e-07
5.6786414e-07
6.1240255e-07
6.1520181e-07
6.7907787e-07
7.579592e-07
8.5477465e-07
9.6627702e-07
1.0934799e-06
1.2371936e-06
1.3987069e-06
1.579424e-06
1.7809595e-06
2.005112e-06
2.2538929e-06
2.5295518e-06
2.8346124e-06
3.1719164e-06
3.5446851e-06
3.9566058e-06
4.4119551e-06
4.9157762e-06
5.4741312e-06
6.0944449e-06
6.7859642e-06
7.5603449e-06
8.4323987e-06
9.4209855e-06
1.0550086e-05
1.1850151e-05
1.3359621e-05
1.5126833e-05
1.7212268e-05
1.9691299e-05
2.2657525e-05
2.6226834e-05
3.0542378e-05
3.5780697e-05
4.2159359e-05
5.0304196e-05
5.9903859e-05
7.1660976e-05
8.6079641e-05
0.00010378006
0.00012552781
0.00015226839
0.00018517062
0.00022567911
0.0002755874
0.00034023202
0.00041669871
0.00051109281
0.00062773466
0.00077202592
0.00095072309
0.0010094751
0.0010085782
0.0010076635
0.0010067272
0.0010057685
0.001004789
0.0010038049
0.0010028956
0.0010021795
0.0010015983
0.0010011357
0.0010007704
0.0010004883
0.0010002747
0.0010001193
0.0009999995
0.0009999413
0.00099989221
0.00099986645
0.00099987534
0.0009999313
0.0010000077
0.0010000336
1.1483482e-07
7.158786e-07
6.4103913e-07
4.7009272e-07
5.1310879e-07
5.5900288e-07
6.3770843e-07
7.3002292e-07
8.3734281e-07
9.5899173e-07
1.0960514e-06
1.249566e-06
1.4208515e-06
1.611369e-06
1.8227681e-06
2.0568942e-06
2.3158132e-06
2.6018041e-06
2.9174998e-06
3.2657902e-06
3.6499644e-06
4.0737786e-06
4.54158e-06
5.0584863e-06
5.6306406e-06
6.2655633e-06
6.9726187e-06
7.7636206e-06
8.6606614e-06
9.6719594e-06
1.0826828e-05
1.2156478e-05
1.3700256e-05
1.5507596e-05
1.7640293e-05
2.017531e-05
2.3208163e-05
2.6857073e-05
3.1268065e-05
3.6621214e-05
4.3138315e-05
5.1092251e-05
6.0818518e-05
7.2731281e-05
8.7340173e-05
0.00010527396
0.00012730887
0.00015575916
0.00018934504
0.00023068768
0.00028161949
0.00034441377