/*--------------------------------*- C++ -*----------------------------------*\
| =========                 |                                                 |
| \\      /  F ield         | OpenFOAM: The Open Source CFD Toolbox           |
|  \\    /   O peration     | Version:  2512                                  |
|   \\  /    A nd           | Website:  www.openfoam.com                      |
|    \\/     M anipulation  |                                                 |
\*---------------------------------------------------------------------------*/
FoamFile
{
    version     2.0;
    format      ascii;
    arch        "LSB;label=32;scalar=64";
    class       volScalarField;
    location    "0.147";
    object      omega;
}
// * * * * * * * * * * * * * * * * * * * * * * * * * * * * * * * * * * * * * //

dimensions      [0 0 -1 0 0 0 0];

internalField   nonuniform List<scalar> 
16000
(
1463.3088
1943.8408
1079.3057
643.79659
452.95297
315.36846
239.09792
180.37849
145.37163
117.69933
100.08771
85.679987
75.03301
66.116445
58.843604
52.710382
47.53131
43.11208
39.313575
36.024425
33.161156
30.653184
28.44237
26.482394
24.735862
23.173691
21.771791
20.511555
19.377215
18.354385
17.430039
16.593904
15.837796
15.154788
14.538967
13.984836
13.487225
13.041247
12.642818
12.288501
11.974427
11.696515
11.451795
11.237568
11.050769
10.888271
10.74765
10.626605
10.522927
10.434524
10.359521
10.296276
10.24326
10.199126
10.1627
10.133083
10.109677
10.092232
10.081044
10.076758
10.077311
10.077425
10.076929
10.076052
10.074667
10.072719
10.070154
10.066938
10.063018
10.058294
10.052569
10.045447
10.03664
10.027782
10.020962
10.015868
10.012599
10.017907
10.014023
10.028825
1465.5592
1921.4933
1070.9281
643.77051
453.25405
318.28645
240.21555
182.27506
146.21853
118.74264
100.63912
86.252188
75.399236
66.434368
59.07373
52.889432
47.662594
43.207848
39.381457
36.070118
33.189562
30.668933
28.449107
26.483051
24.73233
23.167479
21.763703
20.502038
19.36679
18.343814
17.419815
16.584164
15.828532
15.145876
14.530317
13.976425
13.479135
13.033502
12.635249
12.281058
11.967355
11.689839
11.445383
11.231406
11.045019
10.882946
10.742717
10.622049
10.518758
10.430748
10.35611
10.293215
10.240529
10.196707
10.160548
10.131115
10.107767
10.09016
10.078343
10.072866
10.072936
10.073001
10.072402
10.071433
10.069972
10.067958
10.065332
10.062054
10.058076
10.053307
10.04758
10.040549
10.031934
10.02361
10.017249
10.012404
10.010047
10.013025
10.014571
10.029674
1476.538
1909.1877
1057.0981
639.97122
450.09139
318.53053
239.17854
182.4812
145.80388
118.91961
100.50265
86.278323
75.307247
66.345576
58.949851
52.752604
47.51376
43.052918
39.22459
35.913716
33.035595
30.519502
28.305718
26.346962
24.604009
23.0473
21.651569
20.397575
19.26964
18.253974
17.337214
16.50846
15.759312
15.082635
14.472588
13.923789
13.431309
12.990247
12.596146
12.245659
11.935592
11.661528
11.420157
11.20892
11.025181
10.865555
10.727525
10.608825
10.507307
10.420904
10.347683
10.286043
10.234459
10.191606
10.156285
10.127536
10.1047
10.087413
10.0756
10.069522
10.068982
10.068916
10.068165
10.06705
10.065457
10.063326
10.060591
10.057206
10.053128
10.048265
10.042475
10.03547
10.026991
10.019273
10.01341
10.009062
10.007167
10.009224
10.013791
10.028653
1491.2848
1905.7153
1046.3764
636.41228
446.54164
318.59331
237.85164
182.54966
145.24931
118.99803
100.31462
86.242995
75.174263
66.209707
58.785749
52.577214
47.329582
42.865026
39.03718
35.729053
32.85536
30.345667
28.139612
26.189801
24.456146
22.909038
21.522772
20.277811
19.158403
18.151157
17.242726
16.421917
15.680269
15.010527
14.406897
13.864026
13.377108
12.941347
12.552133
12.205956
11.900066
11.62999
11.392229
11.184143
11.003421
10.846585
10.711059
10.594587
10.495054
10.410445
10.338796
10.278539
10.228157
10.186354
10.15194
10.123934
10.101655
10.084716
10.072994
10.066608
10.065385
10.065134
10.0642
10.062904
10.061149
10.058872
10.056
10.052483
10.04828
10.043301
10.037417
10.030419
10.022045
10.01494
10.009611
10.005793
10.004156
10.005906
10.01247
10.024916
1501.4073
1911.7156
1038.1543
632.97755
442.24044
317.91187
235.84425
182.12779
144.32158
118.79989
99.939706
86.032044
74.903335
65.942475
58.507447
52.29842
47.052818
42.593452
38.77403
35.475752
32.612657
30.114828
27.921316
25.984802
24.264402
22.730534
21.357118
20.124369
19.016365
18.020144
17.122502
16.311952
15.580002
14.919259
14.323987
13.788843
13.30913
12.880202
12.497385
12.156845
11.856305
11.591316
11.358228
11.154183
10.977262
10.82393
10.69154
10.577847
10.48076
10.398348
10.32861
10.270022
10.221079
10.180521
10.147177
10.120058
10.098463
10.081989
10.070481
10.063951
10.062173
10.061676
10.060523
10.05901
10.057056
10.054598
10.05156
10.047883
10.043526
10.038406
10.032391
10.025374
10.017178
10.010695
10.005928
10.002633
10.001217
10.002936
10.010748
10.020463
1517.7438
1926.4797
1034.041
630.20593
438.35536
316.60511
233.3658
181.2991
143.13206
118.36535
99.422772
85.667747
74.513962
65.561081
58.129324
51.929259
46.694752
42.248173
38.443846
35.161484
32.314279
29.833046
27.656279
25.736756
24.033103
22.515708
21.158164
19.940502
18.846531
17.863709
16.979112
16.180941
15.460712
14.810869
14.225739
13.699988
13.228996
12.808283
12.433243
12.099598
11.805469
11.546527
11.319076
11.119872
10.947431
10.798221
10.669511
10.559074
10.464818
10.384938
10.31739
10.260707
10.213395
10.174234
10.142087
10.115967
10.095152
10.079225
10.068017
10.061471
10.059274
10.05848
10.057077
10.055318
10.053135
10.050468
10.047238
10.043378
10.038845
10.033566
10.027396
10.02032
10.012426
10.006576
10.002393
9.9996072
9.9984393
10.000231
10.008541
10.016647
1525.352
1947.0695
1033.9118
627.54857
434.54767
314.66914
230.80371
180.09662
141.80938
117.70154
98.773056
85.148787
74.002067
65.063042
57.64775
51.466335
46.2519
41.825857
38.043214
34.782989
31.957164
29.497469
27.341963
25.442855
23.75966
22.262215
20.923791
19.72432
18.647254
17.680419
16.811322
16.027835
15.321526
14.684643
14.111588
13.597027
13.136404
12.725373
12.359546
12.034298
11.747698
11.495767
11.274934
11.081419
10.914134
10.769652
10.645155
10.538441
10.447381
10.370353
10.305256
10.250694
10.205189
10.167564
10.136728
10.111704
10.091756
10.076451
10.065612
10.059148
10.056657
10.055526
10.053846
10.051813
10.049374
10.046472
10.043028
10.038965
10.034235
10.028782
10.022447
10.015254
10.007865
10.00265
9.9990574
9.9967713
9.9958801
9.9978171
10.005781
10.012809
1542.2291
1970.7171
1034.7654
624.53161
430.71022
312.08523
228.1809
178.65471
140.33285
116.81667
98.005564
84.482696
73.36767
64.449487
57.062034
50.908441
45.722625
41.324863
37.569685
34.337777
31.538944
29.10583
26.97648
25.099335
23.440471
21.966702
20.650911
19.473029
18.416057
17.468083
16.61722
15.850975
15.16103
14.539394
13.980548
13.479161
13.030729
12.630998
12.275848
11.961256
11.683356
11.439376
11.226113
11.039246
10.877758
10.738561
10.618779
10.516219
10.428681
10.354784
10.292361
10.240106
10.196557
10.160583
10.131147
10.107298
10.088291
10.073668
10.063249
10.05694
10.054265
10.052766
10.050787
10.048458
10.045741
10.042583
10.038906
10.034625
10.029682
10.02404
10.017557
10.010187
10.003537
9.9989581
9.9959541
9.9941621
9.9935479
9.9956114
10.003104
10.009508
1556.9169
1995.0808
1031.5135
620.7132
425.76641
308.80942
224.55398
176.814
138.43879
115.75369
97.114829
83.667321
72.603033
63.715171
56.366775
50.249567
45.101001
40.739877
37.015046
33.817585
31.051711
28.650576
26.553178
24.706856
23.076792
21.630884
20.341545
19.188846
18.155313
17.229151
16.39927
15.652816
14.98165
14.377495
13.834921
13.348599
12.91408
12.527196
12.183886
11.880105
11.612239
11.377229
11.172473
10.993745
10.83868
10.705266
10.590733
10.49272
10.408991
10.338458
10.278894
10.229092
10.187618
10.153381
10.125412
10.102794
10.084781
10.070892
10.06093
10.054818
10.052047
10.050161
10.047864
10.045224
10.042211
10.038779
10.034854
10.030345
10.025179
10.019329
10.012738
10.005308
9.9994872
9.9955439
9.9931142
9.9918169
9.9915047
9.9935882
10.000466
10.006691
1566.6045
2018.233
1021.9366
615.83575
419.11134
305.12396
220.16492
174.53523
136.59613
114.4971
96.091075
82.697329
71.700137
62.852096
55.553852
49.47673
44.372987
40.057365
36.377492
33.223073
30.497841
28.135137
26.075373
24.264381
22.667883
21.25419
19.995308
18.87158
17.865049
16.96384
16.157774
15.433786
14.783939
14.199601
13.675441
13.206127
12.78726
12.414762
12.084729
11.793175
11.536406
11.311221
11.115541
10.944847
10.796911
10.669742
10.561322
10.468212
10.388598
10.321609
10.265051
10.217807
10.178492
10.14605
10.119585
10.098231
10.081248
10.068132
10.058653
10.052756
10.049944
10.047664
10.045037
10.042076
10.038755
10.035036
10.030851
10.026107
10.020718
10.014644
10.00796
10.000808
9.9957535
9.992439
9.9905607
9.9897539
9.9898115
9.9919057
9.99804
10.00391
1580.1243
2039.3316
1011.6892
609.91553
410.80486
301.03203
215.62737
172.03452
134.62885
113.06138
94.921177
81.565719
70.647099
61.839506
54.600438
48.584684
43.539599
39.281016
35.65483
32.552072
29.87518
27.557693
25.541777
23.771947
22.214071
20.837138
19.612963
18.522208
17.546464
16.673572
15.89395
15.19517
14.569251
14.007111
13.503521
13.053145
12.651641
12.294998
11.979481
11.701199
11.456546
11.242116
11.056211
10.894276
10.753935
10.633166
10.530512
10.442657
10.367739
10.304428
10.251028
10.206414
10.169307
10.138686
10.113735
10.093651
10.07771
10.065396
10.056424
10.050735
10.047902
10.04523
10.042267
10.03898
10.035345
10.031331
10.026877
10.021894
10.016291
10.010002
10.00317
9.9966924
9.9923712
9.9896698
9.9883142
9.9879779
9.9884468
9.9905783
9.9959414
10.0013
1592.5712
2059.7349
996.89167
602.3436
401.23944
296.51853
210.89307
169.28495
132.63924
111.44653
93.577379
80.241512
69.405548
60.670235
53.509427
47.569532
42.596638
38.406995
34.845033
31.803403
29.183302
26.918212
24.952574
23.229928
21.716187
20.380422
19.195453
18.141911
17.20094
16.360091
15.608258
14.937457
14.338128
13.800616
13.319782
12.890277
12.507834
12.168486
11.868712
11.604735
11.37308
11.170921
10.995266
10.842487
10.710169
10.596164
10.499493
10.416917
10.346366
10.286859
10.236961
10.195061
10.160185
10.131386
10.107928
10.089096
10.074188
10.062683
10.054244
10.048748
10.045866
10.042817
10.039516
10.035903
10.031954
10.027641
10.022915
10.01769
10.011879
10.005436
9.9984467
9.9929846
9.9893635
9.9872528
9.9863895
9.9864893
9.9873586
9.9895538
9.9942563
9.9992096
1604.7716
2078.0534
978.25891
593.89503
391.38365
291.60546
206.08829
166.33556
130.59399
109.63144
91.993659
78.707017
67.979473
59.337388
52.273593
46.426904
41.540697
37.433253
33.946814
30.976089
28.421919
26.217151
24.308116
22.63911
21.175667
19.883851
18.742759
17.730886
16.828794
16.024265
15.306144
14.666003
14.095732
13.585075
13.128929
12.721915
12.359899
12.03893
11.755741
11.506765
11.288442
11.097872
10.932952
10.789693
10.665736
10.559204
10.468496
10.391309
10.325349
10.269534
10.222748
10.183831
10.151231
10.12424
10.102233
10.084607
10.070697
10.059988
10.052109
10.046803
10.043787
10.040384
10.03675
10.032817
10.028558
10.023947
10.018948
10.013485
10.007466
10.000947
9.9943215
9.9896903
9.986743
9.9851944
9.9847933
9.9852884
9.9865319
9.9888416
9.9930086
9.9975599
1616.932
2090.4573
955.72115
584.87255
381.02899
286.33303
201.28934
163.19033
128.42248
107.51932
90.152418
76.950056
66.35502
57.831892
50.886208
45.151604
40.368415
36.357275
32.959023
30.069292
27.591015
25.455546
23.607285
21.998553
20.592462
19.354341
18.262415
17.296999
16.438046
15.673411
14.991748
14.384813
13.845407
13.36347
12.933628
12.5504
12.209891
11.908122
11.642071
11.408531
11.204037
11.025567
10.871393
10.7377
10.622022
10.52231
10.437566
10.365716
10.304744
10.252735
10.208937
10.172587
10.142482
10.11732
10.096711
10.080224
10.06726
10.057302
10.049997
10.044925
10.041629
10.037896
10.033938
10.029696
10.025138
10.020236
10.014964
10.009275
10.003075
9.9964426
9.9906951
9.9868318
9.9845108
9.9834899
9.9835232
9.9843681
9.9859296
9.9884151
9.9922779
9.9965485
1629.1177
2091.6079
929.47376
575.21156
370.2919
280.72885
196.57029
159.76768
126.00281
105.11535
88.025007
74.951951
64.519029
56.143134
49.339566
43.738336
39.076744
35.176826
31.881202
29.080196
26.68818
24.632344
22.859223
21.318852
19.977079
18.798338
17.760891
16.846041
16.034104
15.312779
14.670519
14.09901
13.590428
13.138491
12.736129
12.377573
12.059309
11.777309
11.528704
11.310783
11.120209
10.954691
10.811153
10.686904
10.579586
10.486871
10.407871
10.340967
10.284363
10.236549
10.195751
10.161767
10.133774
10.11064
10.091413
10.075984
10.063903
10.054622
10.047857
10.043113
10.039371
10.035328
10.031058
10.026521
10.021679
10.016501
10.01096
10.005044
9.9987557
9.9922896
9.9875625
9.9844084
9.9826604
9.9821255
9.9825659
9.9837194
9.985524
9.9882197
9.9920022
9.9961056
1641.4789
2070.0671
899.78111
564.94114
359.20931
274.79845
191.92459
155.93915
123.25721
102.37392
85.580893
72.68937
62.454959
54.25965
47.626107
42.181617
37.663242
33.886454
30.709612
28.018452
25.726861
23.762021
22.072936
20.609161
19.338251
18.225109
17.247173
16.384747
15.622822
14.947371
14.346512
13.81254
13.337896
12.916376
12.541987
12.208366
11.912492
11.65037
11.419065
11.216591
11.039345
10.885386
10.75236
10.637309
10.538186
10.452972
10.379639
10.317493
10.264856
10.220709
10.183244
10.15155
10.125426
10.104028
10.086347
10.071916
10.06065
10.051973
10.045628
10.041146
10.037005
10.032661
10.028097
10.02328
10.018171
10.012737
10.00695
10.000811
9.9944528
9.9887883
9.9849011
9.982411
9.9811797
9.9810809
9.9818955
9.9833267
9.9853023
9.9881947
9.9921014
9.9961538
1654.0922
2034.819
868.81526
554.10665
347.83717
268.45392
187.04315
151.67579
120.07048
99.245897
82.785079
70.136648
60.1463
52.171615
45.739473
40.472613
36.12143
32.499104
29.462023
26.896605
24.719921
22.85786
21.262167
19.882872
18.686372
17.643496
16.729627
15.92534
15.215365
14.587437
14.029037
13.533019
13.092173
12.7008
12.353941
12.044957
11.771097
11.528656
11.314362
11.12695
10.962794
10.819968
10.69688
10.590553
10.49891
10.420294
10.353019
10.295467
10.246525
10.205685
10.171145
10.14199
10.11757
10.097704
10.081365
10.068033
10.057512
10.049395
10.043354
10.03901
10.034524
10.029891
10.025051
10.019971
10.014614
10.008946
10.002946
9.9966598
9.9903946
9.9858227
9.9826987
9.9808185
9.9800522
9.9803336
9.9814757
9.9831607
9.9852745
9.9883147
9.9924343
9.9965599
1666.7848
2003.6526
837.27067
542.63166
336.17634
261.15397
181.99767
146.87134
116.32505
95.670719
79.60062
67.268753
57.577683
49.871565
43.668687
38.624905
34.475005
31.03232
28.157
25.734892
23.686572
21.938409
20.4411
19.153175
18.039036
17.069779
16.222131
15.477133
14.819637
14.239199
13.723226
13.264895
12.857463
12.495338
12.173753
11.888591
11.635879
11.412522
11.215675
11.042631
10.891114
10.758845
10.644998
10.546913
10.462331
10.389717
10.327596
10.274609
10.229517
10.191665
10.159781
10.132863
10.110277
10.091742
10.076622
10.064307
10.054475
10.046907
10.041105
10.036703
10.031933
10.027026
10.021926
10.016604
10.011018
10.005142
9.9989653
9.9926132
9.9871241
9.9833523
9.9809193
9.9795981
9.979255
9.9798605
9.9812679
9.9831715
9.9854362
9.9885883
9.9928336
9.9970892
1679.0565
1955.6992
804.64543
530.21019
324.12201
252.66102
176.58815
141.40385
111.90703
91.584667
75.993361
64.065902
54.732724
47.348129
41.442485
36.664231
32.75086
29.514934
26.821712
24.558835
22.646637
21.021902
19.633273
18.44037
17.410371
16.515929
15.734771
15.048929
14.443108
13.907448
13.432679
13.010727
12.63548
12.301897
12.005675
11.742908
11.510077
11.304175
11.122651
10.96323
10.82385
10.70247
10.597162
10.506662
10.428642
10.361627
10.304259
10.255348
10.213827
10.178723
10.149243
10.124399
10.103545
10.086185
10.072106
10.060633
10.051508
10.044474
10.038961
10.034246
10.029246
10.024086
10.018744
10.013198
10.007406
10.001347
9.9950962
9.9889465
9.9844658
9.981374
9.9795198
9.9787005
9.9787526
9.9796346
9.9812416
9.9833027
9.9857235
9.988977
9.9932041
9.9975355
1690.1041
1893.8459
770.36706
516.33823
310.90434
242.80549
170.4919
135.12706
106.71366
86.93034
71.941349
60.514062
51.634394
44.654449
39.101675
34.632813
30.989542
27.983518
25.484885
23.393776
21.63079
20.134436
18.856821
17.760111
16.813892
15.992948
15.276148
14.645953
14.090586
13.599192
13.163383
12.775851
12.43084
12.12373
11.850792
11.608746
11.39441
11.204864
11.037724
10.890755
10.762115
10.650196
10.553602
10.469971
10.397937
10.336041
10.282999
10.237699
10.199187
10.166913
10.139546
10.116518
10.097192
10.081081
10.067922
10.057171
10.048597
10.041987
10.036723
10.031693
10.026488
10.021106
10.01554
10.009783
10.003817
9.9976052
9.9912998
9.9860835
9.9823564
9.9798644
9.9784683
9.9780615
9.9784941
9.9796149
9.9813725
9.9835225
9.9860562
9.9894138
9.9935892
9.9979021
1698.7187
1836.0018
733.47561
500.40727
296.79495
231.37413
163.23628
127.87588
100.67469
81.686749
67.448385
56.66302
48.35163
41.854613
36.709164
32.585483
29.2381
26.475205
24.186624
22.273514
20.662204
19.29538
18.128204
17.12564
16.260064
15.508994
14.852055
14.275871
13.767497
13.317017
12.917311
12.561635
12.244676
11.96209
11.710453
11.487067
11.289473
11.114724
10.960733
10.825331
10.706665
10.60378
10.514295
10.436934
10.370263
10.31299
10.263895
10.221953
10.186309
10.156225
10.130767
10.109333
10.091366
10.076393
10.064069
10.053959
10.045826
10.039492
10.034377
10.029084
10.023692
10.018124
10.012364
10.006404
10.000277
9.9940746
9.988051
9.9837656
9.9807296
9.9787829
9.9777637
9.9776199
9.978418
9.9797435
9.9816212
9.9838256
9.986426
9.9898531
9.9939713
9.9981715
1702.1227
1775.0355
693.74189
480.68436
281.57287
218.04772
154.35386
119.52746
93.806282
75.916074
62.610159
52.628839
44.985963
39.037281
34.339568
30.583026
27.541054
25.035033
22.958656
21.223464
19.76141
18.520344
17.459424
16.5466
15.756621
15.069478
14.469009
13.941659
13.476447
13.063233
12.696156
12.369252
12.077724
11.817559
11.585414
11.378682
11.19599
11.03434
10.891959
10.767015
10.657707
10.562305
10.479384
10.407584
10.34565
10.292449
10.246882
10.207836
10.174837
10.146735
10.122932
10.102856
10.086046
10.072111
10.06053
10.051014
10.043285
10.03711
10.031988
10.026486
10.020906
10.015174
10.009273
10.00316
9.9968389
9.9905561
9.9855357
9.9818997
9.9794581
9.9780197
9.9774082
9.9773801
9.9784632
9.9799643
9.9819361
9.9841945
9.9868493
9.9902969
9.9943493
9.9983805
1695.5603
1708.2892
650.62995
454.84166
265.06164
202.49335
143.62562
110.13133
86.279552
69.760061
57.619507
48.561714
41.65681
36.296429
32.068149
28.687159
25.949671
23.698105
21.82881
20.26434
18.943668
17.820424
16.858326
16.028794
15.309178
14.681505
14.131429
13.647201
13.219088
12.839206
12.501037
12.199511
11.93038
11.690152
11.47587
11.284997
11.115355
10.965134
10.832599
10.716201
10.614464
10.525878
10.448762
10.381936
10.324177
10.274459
10.232116
10.195792
10.16478
10.138435
10.116107
10.097202
10.081443
10.068238
10.057287
10.048286
10.040993
10.034993
10.029626
10.023983
10.018223
10.012315
10.006271
10.000103
9.9938558
9.9878079
9.98355
9.9804722
9.9784733
9.9774041
9.9771041
9.9775455
9.9785876
9.9802337
9.9822688
9.9845883
9.9873109
9.9907463
9.9946866
9.9985088
1673.0074
1630.6082
604.37863
422.17085
247.28763
184.54251
131.31015
100.03839
78.456205
63.547439
52.696066
44.623762
38.483738
33.721678
29.963307
26.95134
24.50529
22.494795
20.819258
19.412311
18.220637
17.203823
16.330312
15.575127
14.918242
14.343549
13.838257
13.392488
12.997598
12.646642
12.333626
12.054067
11.804161
11.5808
11.381369
11.203623
11.045588
10.905489
10.781704
10.67274
10.577291
10.49453
10.422451
10.359983
10.306017
10.259542
10.219647
10.185503
10.156251
10.13133
10.110334
10.092514
10.077481
10.064887
10.05442
10.045842
10.038787
10.03292
10.027386
10.021638
10.015757
10.009702
10.003474
9.9971182
9.9908717
9.985765
9.9820393
9.979453
9.9778375
9.9770822
9.9769451
9.9776461
9.9788147
9.9805208
9.9825855
9.984949
9.9877431
9.9911779
9.9950099
9.9986337
1626.3137
1537.963
556.18333
383.4545
229.36659
164.50624
118.12191
89.881954
70.789449
57.594912
48.057397
40.969156
35.578807
31.393928
28.083283
25.420078
23.246077
21.448951
19.947186
18.679828
17.601474
16.677339
15.880346
15.189063
14.586217
14.057561
13.590649
13.177538
12.810539
12.484204
12.192547
11.93164
11.69807
11.489046
11.302212
11.135542
10.987255
10.855744
10.739533
10.637247
10.547596
10.469357
10.401354
10.342299
10.291219
10.247148
10.209272
10.177041
10.149395
10.125797
10.105708
10.088678
10.074287
10.062168
10.052121
10.043757
10.036848
10.031018
10.025326
10.019483
10.013524
10.007419
10.001165
9.9948111
9.9886667
9.9841977
9.9809253
9.9787306
9.9774373
9.9769178
9.9768401
9.9778205
9.9790718
9.9808107
9.9828747
9.9852462
9.9880668
9.991488
9.9952544
9.9987161
1547.5089
1434.8198
507.17504
343.47703
205.44773
145.2393
104.99108
80.336027
63.721708
52.205745
43.911707
37.747705
33.048639
29.386084
26.474393
24.11928
22.185477
20.576898
19.224095
18.076126
17.093974
16.247928
15.514713
14.875866
14.316506
13.824504
13.389867
13.004318
12.661137
12.35473
12.080461
11.834682
11.61433
11.416876
11.240178
11.082384
10.941854
10.817091
10.706707
10.60939
10.523915
10.449203
10.384543
10.328329
10.279702
10.237747
10.201656
10.170691
10.14419
10.121508
10.102163
10.085725
10.071908
10.060216
10.050394
10.042188
10.035343
10.029485
10.023631
10.017658
10.011573
10.005367
9.9990571
9.9927705
9.987134
9.9830767
9.9801489
9.9782301
9.977168
9.976827
9.9771276
9.9779752
9.9793359
9.9810852
9.9831455
9.985504
9.9882805
9.9915816
9.9952114
9.9986257
1439.3537
1390.085
461.36656
295.96453
181.73963
127.21279
93.150228
71.896496
57.61385
47.665003
40.470903
35.106312
30.99382
27.766407
25.182224
23.077428
21.33792
19.882101
18.649422
17.597721
16.693354
15.910683
15.229465
14.633512
14.109694
13.647274
13.237371
12.872669
12.547234
12.256593
11.995829
11.761756
11.551566
11.362955
11.193965
11.042902
10.90826
10.788669
10.682848
10.589583
10.507703
10.436062
10.373537
10.319198
10.272098
10.231393
10.196312
10.166195
10.140573
10.118611
10.099876
10.083923
10.070383
10.058934
10.04929
10.041196
10.034398
10.028513
10.022545
10.016461
10.010257
10.003937
9.997545
9.9912968
9.9861355
9.9823727
9.979705
9.9779893
9.9770855
9.9768135
9.9772714
9.9781893
9.97958
9.9813426
9.9834119
9.9857818
9.9885276
9.9917019
9.9951604
9.9985174
1312.8887
1218.8682
421.82385
253.75989
159.75801
112.21477
83.36561
65.089067
52.790545
44.166901
37.883669
33.155532
29.497537
26.600998
24.261993
22.341761
20.74321
19.39674
18.25134
17.268819
16.42015
15.682739
15.038693
14.473562
13.975473
13.534553
13.142777
12.793402
12.480866
12.200575
11.948765
11.7223
11.518597
11.335497
11.171164
11.024007
10.892608
10.77567
10.671987
10.580429
10.499977
10.429899
10.368639
10.315363
10.269152
10.229188
10.194714
10.16505
10.139585
10.117784
10.099162
10.083299
10.069827
10.058424
10.048812
10.040741
10.033955
10.028072
10.022093
10.015979
10.009731
10.003346
9.9968789
9.9905986
9.9856682
9.9820588
9.9795294
9.9779346
9.977155
9.9769627
9.9774252
9.9783874
9.9797891
9.981556
9.9836349
9.9860156
9.988732
9.991797
9.9951092
9.9984299
1202.4166
1094.899
389.56847
223.28074
143.34501
101.19132
76.120545
60.13026
49.340161
41.709079
36.093011
31.826663
28.49558
25.835567
23.670884
21.881148
20.381547
19.110897
18.02411
17.087292
16.274474
15.565372
14.943856
14.396969
13.914592
13.486409
13.105171
12.764509
12.459188
12.184856
11.937923
11.715431
11.514931
11.334381
11.172047
11.026425
10.896176
10.780073
10.676963
10.585752
10.505385
10.43485
10.373184
10.319457
10.272798
10.232397
10.19751
10.167458
10.141633
10.119492
10.100553
10.084394
10.070644
10.058983
10.049129
10.040833
10.033848
10.027833
10.021954
10.015911
10.00976
10.003486
9.997135
9.9909374
9.9859
9.982249
9.9796855
9.9780721
9.9772865
9.9770962
9.9775661
9.978522
9.9799185
9.9816828
9.9837709
9.9861627
9.9888588
9.9918455
9.9950561
9.9983674
1156.5752
1041.0029
365.75478
206.37055
132.56661
93.687484
70.702063
56.173243
46.387746
39.457836
34.342381
30.43879
27.378025
24.923834
22.919015
21.255507
19.856952
18.668103
17.648156
16.766401
15.999295
15.328444
14.739178
14.219566
13.759724
13.351379
12.98752
12.662243
12.370585
12.108404
11.872268
11.65934
11.467278
11.294128
11.138247
10.998215
10.872774
10.760781
10.661163
10.572899
10.495008
10.426538
10.366576
10.314248
10.268732
10.229257
10.195114
10.165655
10.140298
10.118518
10.099853
10.083895
10.070285
10.058712
10.048903
10.040615
10.033608
10.027544
10.021593
10.015488
10.009278
10.002953
9.9965693
9.9903977
9.9856097
9.9820796
9.9796062
9.978041
9.9772594
9.9770438
9.9776028
9.978534
9.9799255
9.9816833
9.9837757
9.9861756
9.9888662
9.9918213
9.994993
9.9983237
37066.757
79720.282
39496.168
10044.963
1235.1739
612.5155
435.59405
350.59867
288.87228
234.71716
191.52387
158.68677
134.19316
115.96574
102.01309
90.665691
81.044238
72.795914
65.712764
59.600575
54.286462
49.634148
45.538236
41.913474
38.694798
35.817724
33.236969
30.912665
28.813032
26.912975
25.191096
23.628333
22.208032
20.915535
19.739331
18.669745
17.698073
16.8166
16.018284
15.296708
14.646286
14.06148
13.537241
13.069013
12.652319
12.282935
11.957043
11.670617
11.419982
11.201789
11.012771
10.849814
10.709945
10.59064
10.489389
10.403954
10.333944
10.279259
10.239857
10.218334
10.211201
10.209299
10.207379
10.204682
10.201551
10.198025
10.193676
10.187107
10.177818
10.1676
10.152532
10.140561
10.111763
10.097116
10.069544
10.073597
10.024678
10.04842
9.9902293
10.011585
22248.768
69733.593
27814.195
4623.5566
940.85874
532.69512
399.54252
321.59107
263.11349
212.00796
174.04569
145.39265
124.24834
108.43728
96.069714
85.734946
76.884417
69.289221
62.753965
57.090192
52.143176
47.795456
43.954733
40.545183
37.505022
34.781228
32.332397
30.121238
28.119689
26.305177
24.657957
23.160361
21.797049
20.554527
19.422497
18.392007
17.454932
16.604105
15.832916
15.135366
14.506232
13.940209
13.432552
12.978946
12.575086
12.216953
11.900896
11.622998
11.379757
11.167954
10.984424
10.826156
10.690282
10.574388
10.476045
10.393024
10.324526
10.271167
10.23299
10.212705
10.206185
10.204463
10.202573
10.199937
10.196888
10.193439
10.189444
10.183565
10.174946
10.16515
10.150638
10.13878
10.110814
10.096478
10.068958
10.073461
10.024494
10.048657
9.9907728
10.012077
24177.224
49358.121
16439.406
2354.8037
832.19219
506.22519
388.03422
306.34599
250.67018
201.31428
166.59161
139.47311
119.73273
104.82304
93.035256
83.094306
74.598624
67.317158
61.045456
55.601274
50.840216
46.652207
42.949285
39.658807
36.720012
34.085657
31.715582
29.573451
27.633223
25.873237
24.274441
22.819837
21.494761
20.286307
19.184864
18.181789
17.269278
16.440474
15.689001
15.009104
14.395775
13.843828
13.348726
12.906289
12.512319
12.162932
11.854586
11.583428
11.346083
11.139417
10.960333
10.805897
10.673334
10.56032
10.46435
10.383367
10.316157
10.263821
10.226585
10.207244
10.201181
10.199617
10.197773
10.195212
10.192249
10.18888
10.185046
10.179874
10.171958
10.162609
10.148682
10.136944
10.109883
10.095774
10.068311
10.073112
10.024306
10.048834
9.9914132
10.012592
32004.575
27418.979
8478.3902
1493.7545
760.2361
482.58677
374.43969
291.4795
239.48024
190.7834
159.59193
133.6469
115.4119
101.34801
90.134447
80.583351
72.434575
65.448024
59.422686
54.184452
49.597823
45.559317
41.985223
38.806129
35.964503
33.412501
31.116121
29.039145
27.157094
25.449001
23.896479
22.483134
21.194915
20.019448
18.947771
17.971472
17.083055
16.27594
15.543957
14.881577
14.283985
13.746097
13.263574
12.83236
12.448354
12.107799
11.807259
11.542936
11.311583
11.110147
10.935597
10.785079
10.655974
10.545817
10.452292
10.3734
10.307669
10.25638
10.220116
10.201719
10.19614
10.194738
10.192946
10.190466
10.187593
10.184307
10.180527
10.175929
10.168748
10.159872
10.14656
10.134953
10.108816
10.094966
10.067598
10.072608
10.024116
10.048962
9.9921184
10.013176
36396.215
20080.49
5453.4984
1269.0927
722.74451
461.57515
363.6204
279.12976
231.16887
182.659
154.52
129.02153
112.10596
98.572161
87.786478
78.525878
70.652058
63.895595
58.063109
52.987336
48.539699
44.621408
41.151732
38.063638
35.30155
32.820217
30.583736
28.561689
26.729128
25.065501
23.552922
22.175454
20.919524
19.773171
18.727969
17.775625
16.908907
16.121445
15.407226
14.760906
14.177821
13.652956
13.182152
12.761439
12.386796
12.054582
11.761439
11.503618
11.277992
11.08157
10.911387
10.764668
10.638878
10.531509
10.440368
10.363516
10.299357
10.249053
10.213723
10.19609
10.191096
10.189847
10.188113
10.18572
10.18294
10.17974
10.176043
10.171766
10.165346
10.15697
10.144297
10.132833
10.107629
10.094037
10.066813
10.072007
10.023931
10.049045
9.9928535
10.013818
38512.48
16947.482
3889.5498
1187.4854
698.14256
442.06002
355.6745
268.9442
224.63101
175.94251
150.47022
125.03409
109.35171
96.153384
85.742045
76.723434
69.086337
62.524164
56.855877
51.919304
47.59144
43.77714
40.398106
37.389303
34.696939
32.277158
30.094158
28.120809
26.332246
24.708388
23.231714
21.886654
20.660044
19.540269
18.51937
17.589104
16.742491
15.973326
15.275721
14.644493
14.075099
13.562574
13.102926
12.692246
12.326583
12.002397
11.7164
11.464879
11.244823
11.053296
10.887402
10.744475
10.621857
10.51723
10.428446
10.353615
10.291139
10.241783
10.207368
10.190538
10.186058
10.184942
10.183272
10.180972
10.178288
10.175176
10.171559
10.167403
10.161738
10.15389
10.14188
10.130575
10.106285
10.09298
10.065951
10.07131
10.023753
10.049087
9.9935938
10.014548
39847.168
14158.178
3106.5798
1135.9927
680.85792
427.93385
349.81259
260.55911
219.49285
170.48853
147.21321
121.63049
107.06784
94.050559
83.968697
75.146552
67.710957
61.311882
55.782849
50.965076
46.74012
43.015645
39.715288
36.775646
34.144363
31.778888
29.644755
27.713458
25.963921
24.37567
22.931317
21.615573
20.415616
19.320119
18.321539
17.411621
16.583634
15.831493
15.149412
14.532352
13.975864
13.475017
13.025973
12.624863
12.267797
11.951327
11.672217
11.42679
11.212148
11.025407
10.863778
10.724433
10.604942
10.503017
10.416558
10.343726
10.283005
10.234586
10.201066
10.185069
10.181024
10.180031