/*--------------------------------*- C++ -*----------------------------------*\
| =========                 |                                                 |
| \\      /  F ield         | OpenFOAM: The Open Source CFD Toolbox           |
|  \\    /   O peration     | Version:  2512                                  |
|   \\  /    A nd           | Website:  www.openfoam.com                      |
|    \\/     M anipulation  |                                                 |
\*---------------------------------------------------------------------------*/
FoamFile
{
    version     2.0;
    format      ascii;
    arch        "LSB;label=32;scalar=64";
    class       volScalarField;
    location    "0.147";
    object      p;
}
// * * * * * * * * * * * * * * * * * * * * * * * * * * * * * * * * * * * * * //

dimensions      [1 -1 -2 0 0 0 0];

internalField   nonuniform List<scalar> 
16000
(
89591.395
89717.272
89729.123
89863.287
89889.572
90016.575
90067.139
90183.581
90257.406
90368.289
90460.308
90571.164
90677.228
90792.436
90909.554
91032.137
91158.807
91290.168
91426.102
91566.699
91711.972
91861.929
92016.553
92175.805
92339.62
92507.904
92680.534
92857.355
93038.179
93222.784
93410.912
93602.273
93796.539
93993.349
94192.311
94393.001
94594.969
94797.741
95000.825
95203.713
95405.889
95606.836
95806.036
96002.985
96197.192
96388.188
96575.531
96758.81
96937.648
97111.708
97280.692
97444.346
97602.455
97754.849
97901.398
98042.012
98176.638
98305.259
98427.889
98544.573
98655.385
98760.418
98859.789
98953.632
99042.099
99125.354
99203.575
99276.95
99345.678
99409.963
99470.011
99526.045
99578.303
99626.995
99672.299
99714.742
99758.98
99771.235
99874.924
99779.626
89223.746
89366.571
89376.069
89522.249
89550.082
89688.042
89740.977
89868.73
89946.424
90067.458
90165.928
90285.784
90400.232
90524.378
90650.837
90782.993
90919.649
91061.293
91207.845
91359.362
91515.841
91677.262
91843.579
92014.718
92190.574
92371.013
92555.863
92744.919
92937.94
93134.646
93334.721
93537.808
93743.517
93951.422
94161.063
94371.954
94583.583
94795.418
95006.916
95217.523
95426.689
95633.865
95838.521
96040.143
96238.246
96432.375
96622.114
96807.086
96986.959
97161.445
97330.303
97493.338
97650.4
97801.383
97946.22
98084.884
98217.381
98343.748
98464.052
98578.383
98686.853
98789.591
98886.74
98978.458
99064.912
99146.281
99222.747
99294.5
99361.737
99424.656
99483.461
99538.369
99589.593
99637.29
99681.789
99724.236
99762.183
99791.726
99863.814
99798.099
88888.133
89046.441
89055.629
89215.149
89243.227
89394.948
89449.729
89589.841
89672.522
89804.135
89910.461
90039.988
90164.092
90298.194
90435.181
90578.087
90725.922
90879.047
91037.396
91200.987
91369.788
91543.745
91722.774
91906.762
92095.56
92288.98
92486.801
92688.757
92894.543
93103.812
93316.175
93531.202
93748.426
93967.344
94187.424
94408.107
94628.815
94848.956
95067.935
95285.158
95500.043
95712.027
95920.572
96125.173
96325.365
96520.728
96710.889
96895.525
97074.366
97247.194
97413.842
97574.19
97728.167
97875.742
98016.925
98151.758
98280.313
98402.691
98519.01
98629.409
98734.042
98833.072
98926.67
99015.015
99098.29
99176.681
99250.377
99319.569
99384.446
99445.202
99502.032
99555.136
99604.698
99650.894
99694.181
99735.011
99770.687
99806.49
99858.861
99815.902
88589.76
88758.912
88768.792
88943.736
88971.282
89139.283
89196.344
89350.772
89439.303
89582.998
89698.607
89839.108
89974.429
90119.877
90268.833
90423.879
90584.232
90750.135
90921.532
91098.403
91280.691
91468.309
91661.134
91859.005
92061.719
92269.032
92480.651
92696.237
92915.404
93137.721
93362.708
93589.847
93818.578
94048.312
94278.431
94508.298
94737.265
94964.684
95189.911
95412.322
95631.316
95846.329
96056.837
96262.363
96462.487
96656.845
96845.131
97027.099
97202.565
97371.399
97533.525
97688.918
97837.597
97979.619
98115.078
98244.093
98366.809
98483.389
98594.007
98698.85
98798.114
98891.995
98980.688
99064.391
99143.3
99217.609
99287.507
99353.18
99414.812
99472.583
99526.676
99577.264
99624.514
99668.634
99710.015
99748.559
99782.977
99819.774
99860.071
99832.954
88331.233
88515.227
88521.99
88715.583
88742.037
88928.297
88987.514
89158.008
89253.598
89410.735
89537.349
89689.942
89837.91
89995.859
90157.943
90326.257
90500.237
90680.039
90865.612
91056.91
91253.838
91456.266
91664.014
91876.857
92094.517
92316.665
92542.916
92772.833
93005.926
93241.656
93479.436
93718.637
93958.599
94198.63
94438.023
94676.062
94912.035
95145.243
95375.011
95600.699
95821.712
96037.508
96247.604
96451.583
96649.096
96839.862
97023.673
97200.387
97369.923
97532.264
97687.441
97835.537
97976.67
98110.996
98238.693
98359.963
98475.02
98584.09
98687.401
98785.183
98877.67
98965.084
99047.643
99125.558
99199.033
99268.263
99333.436
99394.73
99452.316
99506.362
99557.028
99604.461
99648.818
99690.314
99729.169
99765.095
99798.053
99833.397
99865.199
99850.284
88115.445
88316.959
88321.886
88536.364
88561.87
88768.39
88830.01
89018.316
89122.172
89293.424
89432.195
89597.354
89758.887
89930.206
90106.436
90289.183
90478.059
90673.132
90874.323
91081.528
91294.587
91513.293
91737.379
91966.523
92200.342
92438.392
92680.17
92925.111
93172.597
93421.959
93672.481
93923.414
94173.98
94423.388
94670.84
94915.55
95156.755
95393.725
95625.779
95852.291
96072.703
96286.531
96493.37
96692.896
96884.868
97069.124
97245.58
97414.222
97575.1
97728.322
97874.045
98012.462
98143.803
98268.317
98386.273
98497.948
98603.623
98703.578
98798.09
98887.427
98971.848
99051.599
99126.911
99198.003
99265.081
99328.337
99387.95
99444.085
99496.902
99546.547
99593.154
99636.843
99677.77
99716.108
99751.888
99784.91
99815.941
99848.255
99873.64
99868.743
87942.565
88164.913
88167.153
88406.228
88430.837
88661.591
88726.241
88933.789
89045.811
89230.631
89382.676
89561.241
89737.899
89924.308
90116.561
90315.757
90521.587
90734.013
90952.884
91178.007
91409.129
91645.934
91888.039
92134.995
92386.283
92641.314
92899.435
93159.929
93422.024
93684.9
93947.702
94209.547
94469.543
94726.801
94980.452
95229.658
95473.633
95711.652
95943.063
96167.3
96383.886
96592.442
96792.683
96984.422
97167.565
97342.102
97508.102
97665.704
97815.106
97956.552
98090.329
98216.748
98336.143
98448.857
98555.238
98655.631
98750.373
98839.791
98924.196
99003.883
99079.13
99150.195
99217.315
99280.707
99340.573
99397.095
99450.439
99500.756
99548.183
99592.846
99634.846
99674.286
99711.312
99746.012
99778.26
99808.139
99836.815
99865.086
99885.011
99889.102
87807.018
88053.847
88051.903
88320.563
88341.981
88599.105
88666.851
88893.585
89017.59
89218.797
89388.007
89582.964
89777.878
89982.365
90193.485
90411.913
90637.38
90869.747
91108.774
91354.161
91605.53
91862.431
92124.329
92390.613
92660.592
92933.499
93208.499
93484.693
93761.136
94036.844
94310.812
94582.032
94849.507
95112.274
95369.419
95620.097
95863.541
96099.083
96326.159
96544.317
96753.221
96952.649
97142.49
97322.738
97493.484
97654.9
97807.233
97950.787
98085.917
98213.009
98332.473
98444.734
98550.218
98649.349
98742.542
98830.194
98912.685
98990.372
99063.587
99132.64
99197.815
99259.371
99317.541
99372.534
99424.538
99473.72
99520.229
99564.193
99605.73
99644.935
99681.88
99716.653
99749.379
99780.024
99808.38
99834.923
99860.763
99884.146
99899.513
99912.012
87707.986
87983.252
87977.003
88281.863
88297.704
88583.686
88657.44
88906.425
89047.42
89267.278
89457.141
89671.282
89887.427
90113.027
90345.973
90586.59
90834.579
91089.676
91351.51
91619.632
91893.498
92172.473
92455.828
92742.741
93032.308
93323.543
93615.398
93906.771
94196.526
94483.515
94766.591
95044.641
95316.597
95581.465
95838.342
96086.435
96325.069
96553.706
96771.942
96979.512
97176.286
97362.261
97537.548
97702.364
97857.013
98001.87
98137.37
98263.988
98382.226
98492.604
98595.643
98691.862
98781.762
98865.829
98944.522
99018.274
99087.486
99152.529
99213.741
99271.433
99325.881
99377.334
99426.011
99472.104
99515.782
99557.191
99596.454
99633.68
99668.958
99702.351
99733.904
99763.697
99791.809
99818.065
99842.281
99865.365
99887.885
99905.722
99917.385
99937.876
87648.906
87957.329
87947.681
88289.735
88304.935
88623.619
88708.954
88983.167
89144.04
89384.611
89598.774
89835.299
90075.954
90326.084
90584.183
90850.27
91123.941
91404.762
91692.181
91985.542
92284.075
92586.903
92893.041
93201.407
93510.833
93820.082
94127.865
94432.865
94733.759
95029.248
95318.083
95599.089
95871.194
96133.45
96385.05
96625.346
96853.853
97070.255
97274.395
97466.276
97646.038
97813.949
97970.384
98115.805
98250.743
98375.78
98491.529
98598.622
98697.692
98789.365
98874.251
98952.933
99025.964
99093.864
99157.114
99216.158
99271.399
99323.205
99371.902
99417.785
99461.114
99502.115
99540.984
99577.888
99612.971
99646.352
99678.13
99708.384
99737.175
99764.531
99790.479
99815.091
99838.365
99859.999
99879.958
99899.519
99918.264
99930.166
99939.018
99966.938
87636.789
87984.589
87970.946
88353.691
88372.795
88727.686
88827.651
89129.183
89315.709
89579.833
89822.558
90085.435
90354.391
90632.934
90919.924
91215.09
91517.849
91827.532
92143.33
92464.302
92789.376
93117.358
93446.943
93776.733
94105.257
94430.998
94752.42
95068
95376.265
95675.818
95965.379
96243.809
96510.14
96763.589
97003.574
97229.713
97441.828
97639.924
97824.185
97994.944
98152.666
98297.919
98431.355
98553.685
98665.656
98768.031
98861.578
98947.05
99025.18
99096.665
99162.166
99222.3
99277.64
99328.711
99375.989
99419.907
99460.851
99499.164
99535.148
99569.069
99601.156
99631.606
99660.583
99688.224
99714.642
99739.926
99764.146
99787.354
99809.574
99830.807
99851.068
99870.408
99888.722
99905.62
99921.337
99937.363
99951.922
99957.823
99964.904
99999.518
87678.433
88073.041
88055.577
88486.474
88510.733
88905.014
89024.384
89355.143
89573.058
89864.105
90139.872
90433.723
90735.334
91046.695
91366.775
91694.976
92030.429
92372.13
92718.909
93069.44
93422.259
93775.777
94128.307
94478.089
94823.327
95162.225
95493.03
95814.074
96123.817
96420.884
96704.106
96972.536
97225.474
97462.467
97683.308
97888.023
98076.849
98250.209
98408.683
98552.977
98683.892
98802.297
98909.101
99005.231
99091.609
99169.141
99238.699
99301.115
99357.17
99407.593
99453.056
99494.175
99531.508
99565.556
99596.769
99625.545
99652.233
99677.137
99700.521
99722.611
99743.599
99763.642
99782.868
99801.38
99819.255
99836.551
99853.309
99869.548
99885.259
99900.42
99915.041
99929.134
99942.468
99954.652
99966.278
99978.781
99988.775
99988.847
99995.295
100036.02
87774.575
88224.691
88203.892
88689.504
88722.335
89160.446
89307.136
89669.899
89926.62
90249.588
90563.753
90894.207
91233.665
91582.899
91940.741
92306.17
92677.89
93054.431
93434.14
93815.199
94195.66
94573.468
94946.509
95312.646
95669.779
96015.898
96349.137
96667.829
96970.551
97256.16
97523.814
97772.978
98003.425
98215.212
98408.659
98584.309
98742.896
98885.301
99012.516
99125.609
99225.686
99313.869
99391.269
99458.969
99518.005
99569.361
99613.956
99652.643
99686.205
99715.356
99740.74
99762.934
99782.454
99799.753
99815.23
99829.231
99842.054
99853.953
99865.141
99875.799
99886.073
99896.078
99905.901
99915.608
99925.24
99934.825
99944.37
99953.862
99963.264
99972.538
99981.689
99990.662
99999.111
100006.75
100014.55
100023.55
100028.68
100023.44
100030.51
100076.3
87931.658
88447.644
88424.478
88972.441
89019.914
89506.019
89689.25
90087.557
90390.958
90752.236
91110.939
91484.521
91867.786
92260.432
92660.883
93067.527
93478.476
93891.647
94304.771
94715.437
95121.129
95519.287
95907.375
96282.945
96643.72
96987.663
97313.036
97618.45
97902.899
98165.76
98406.795
98626.122
98824.177
99001.675
99159.552
99298.92
99421.015
99527.15
99618.681
99696.966
99763.341
99819.095
99865.459
99903.587
99934.556
99959.355
99978.889
99993.977
100005.36
100013.68
100019.53
100023.42
100025.8
100027.05
100027.5
100027.44
100027.1
100026.68
100026.33
100026.18
100026.34
100026.87
100027.81
100029.21
100031.05
100033.35
100036.07
100039.16
100042.58
100046.27
100050.23
100054.31
100058.09
100061.5
100065.83
100071.33
100071.45
100061.85
100070.78
100119.95
88156.609
88751.534
88728.489
89347.116
89416.639
89954.71
90185.729
90624.731
90983.837
91391.866
91802.561
92226.758
92660.337
93101.939
93549.319
94000.095
94451.61
94901.012
95345.289
95781.343
96206.075
96616.48
97009.749
97383.368
97735.207
98063.575
98367.268
98645.577
98898.275
99125.579
99328.105
99506.799
99662.875
99797.747
99912.963
100010.15
100090.97
100157.07
100210.06
100251.46
100282.74
100305.24
100320.21
100328.79
100332.03
100330.84
100326.07
100318.44
100308.61
100297.15
100284.54
100271.21
100257.52
100243.78
100230.24
100217.11
100204.56
100192.72
100181.69
100171.56
100162.37
100154.14
100146.88
100140.59
100135.23
100130.77
100127.16
100124.33
100122.19
100120.71
100119.85
100119.35
100118.77
100118.39
100119.65
100121.63
100116.77
100104.2
100116.15
100166.47
88456.455
89145.815
89125.333
89824.309
89927.334
90523.204
90816.571
91304.658
91729.949
92194.973
92665.978
93148.412
93638.361
94133.348
94630.198
95125.531
95615.705
96096.932
96565.379
97017.309
97449.219
97857.979
98240.949
98596.072
98921.913
99217.681
99483.198
99718.851
99925.513
100104.46
100257.28
100385.78
100491.93
100577.74
100645.25
100696.46
100733.3
100757.58
100771.03
100775.2
100771.55
100761.38
100745.86
100726.04
100702.85
100677.1
100649.51
100620.7
100591.2
100561.46
100531.87
100502.76
100474.4
100446.99
100420.73
100395.73
100372.11
100349.93
100329.24
100310.06
100292.41
100276.25
100261.57
100248.31
100236.42
100225.84
100216.49
100208.28
100201.11
100194.94
100189.69
100185
100180.52
100176.87
100175.43
100173.86
100164.25
100150.25
100166.27
100215.04
88839.389
89641.55
89628.328
90422.684
90575.638
91239.093
91611.9
92159.892
92662.152
93194.787
93734.084
94281.278
94831.873
95381.994
95927.156
96462.672
96983.733
97485.619
97963.9
98414.632
98834.522
99221.047
99572.512
99888.064
100167.64
100411.9
100622.09
100799.95
100947.58
101067.32
101161.64
101233.08
101284.15
101317.26
101334.72
101338.7
101331.19
101314.01
101288.82
101257.09
101220.15
101179.16
101135.14
101088.98
101041.46
100993.25
100944.91
100896.92
100849.68
100803.53
100758.74
100715.54
100674.09
100634.53
100596.96
100561.43
100527.98
100496.63
100467.38
100440.19
100415.03
100391.85
100370.58
100351.14
100333.46
100317.45
100303
100290
100278.38
100268.07
100258.9
100250.48
100242.62
100236.28
100232.44
100227.4
100213.5
100199.4
100220.12
100265.27
89322.68
90263.773
90268.636
91177.787
91398.86
92140.413
92610.462
93230.042
93819.369
94429.669
95043.985
95659.941
96271.513
96872.903
97457.949
98020.591
98555.131
99056.529
99520.633
99944.337
100325.66
100663.72
100958.69
101211.64
101424.38
101599.31
101739.2
101847.11
101926.2
101979.62
102010.45
102021.65
102015.97
101995.95
101963.93
101921.98
101872
101815.64
101754.37
101689.48
101622.06
101553.09
101483.38
101413.64
101344.46
101276.34
101209.67
101144.81
101082.02
101021.52
100963.46
100907.98
100855.14
100805.01
100757.61
100712.94
100670.96
100631.66
100594.97
100560.82
100529.15
100499.87
100472.87
100448.07
100425.36
100404.62
100385.74
100368.61
100353.13
100339.23
100326.67
100315.04
100304.39
100295.88
100289.88
100281.58
100264.33
100251.08
100276.3
100317.5
89936.591
91054.585
91089.241
92132.089
92440.74
93269.275
93855.991
94561.185
95247.436
95943.853
96636.259
97318.547
97982.38
98619.88
99223.576
99786.923
100304.62
100772.83
101189.26
101553.09
101864.91
102126.41
102340.25
102509.72
102638.57
102730.76
102790.34
102821.27
102827.34
102812.12
102778.89
102730.64
102670.04
102599.5
102521.13
102436.77
102348.02
102256.28
102162.73
102068.4
101974.13
101880.66
101788.58
101698.4
101610.52
101525.26
101442.88
101363.58
101287.51
101214.76
101145.4
101079.46
101016.94
100957.83
100902.08
100849.63
100800.41
100754.34
100711.32
100671.26
100634.05
100599.57
100567.7
100538.34
100511.34
100486.6
100463.96
100443.33
100424.61
100407.68
100392.24
100377.96
100365.14
100354.94
100346.95
100335.74
100316.47
100305.03
100333.92
100371.11
90715.108
92045.942
92125.184
93322.621
93752.108
94679.889
95405.073
96212.155
97002.009
97785.442
98547.594
99278.765
99968.785
100609.04
101192.66
101714.88
102173.07
102566.68
102896.93
103166.55
103379.38
103540.02
103653.5
103725.05
103759.83
103762.82
103738.68
103691.71
103625.81
103544.44
103450.7
103347.27
103236.52
103120.45
103000.81
102879.07
102756.49
102634.1
102512.8
102393.31
102276.21
102162
102051.07
101943.7
101840.14
101740.55
101645.05
101553.71
101466.57
101383.63
101304.87
101230.23
101159.66
101093.07
101030.36
100971.44
100916.18
100864.47
100816.18
100771.19
100729.35
100690.54
100654.62
100621.45
100590.89
100562.81
100537.06
100513.55
100492.18
100472.76
100454.98
100438.62
100424.22
100412.73
100402.94
100389.28
100369.29
100360.79
100392.4
100424.69
91689.984
93286.531
93446.871
94815.964
95411.942
96454.417
97334.427
98252.262
99137.822
99988.566
100788.24
101525.71
102191.85
102780.7
103289.35
103717.74
104068.23
104345.1
104553.95
104701.23
104793.75
104838.4
104841.8
104810.19
104749.3
104664.29
104559.74
104439.68
104307.6
104166.5
104018.96
103867.16
103712.93
103557.82
103403.11
103249.85
103098.92
102951.03
102806.73
102666.47
102530.61
102399.4
102273.03
102151.64
102035.3
101924.04
101817.86
101716.73
101620.58
101529.35
101442.93
101361.21
101284.07
101211.38
101143
101078.79
101018.6
100962.27
100909.67
100860.64
100815.02
100772.66
100733.42
100697.14
100663.69
100632.9
100604.65
100578.83
100555.33
100533.93
100514.31
100496.45
100480.98
100468.54
100457.18
100441.7
100422.13
100417.33
100450.27
100476.28
92943.14
94875.046
95161.109
96722.568
97531.95
98695.689
99723.159
100733.49
101674.71
102537.96
103309.67
103982.5
104553.31
105023.05
105395.93
105678.62
105879.34
106007.18
106071.45
106081.21
106045.01
105970.66
105865.16
105734.68
105584.57
105419.42
105243.15
105059.05
104869.89
104677.96
104485.18
104293.09
104102.99
103915.89
103732.64
103553.87
103380.1
103211.72
103049.01
102892.19
102741.37
102596.64
102458.01
102325.47
102198.98
102078.45
101963.78
101854.86
101751.55
101653.71
101561.18
101473.81
101391.42
101313.84
101240.91
101172.45
101108.29
101048.26
100992.19
100939.9
100891.24
100846.03
100804.13
100765.37
100729.6
100696.66
100666.44
100638.83
100613.67
100590.73
100569.76
100550.89
100534.78
100521.61
100508.96
100492.45
100474.28
100472.94
100505.16
100524.53
94604.036
96949.822
97416.012
99166.771
100222.95
101489.48
102608.22
103641.55
104551.97
105333.74
105983.31
106503.55
106901.67
107188.08
107374.97
107475.27
107501.72
107466.41
107380.32
107253.24
107093.69
106908.96
106705.24
106487.71
106260.66
106027.64
105791.55
105554.75
105319.15
105086.27
104857.33
104633.29
104414.89
104202.69
103997.12
103798.47
103606.95
103422.68
103245.73
103076.07
102913.69
102758.49
102610.38
102469.21
102334.84
102207.11
102085.85
101970.85
101861.95
101758.94
101661.62
101569.8
101483.27
101401.84
101325.31
101253.49
101186.18
101123.2
101064.37
101009.51
100958.43
100910.96
100866.96
100826.24
100788.65
100754.05
100722.32
100693.33
100666.91
100642.84
100620.94
100601.46
100584.98
100571.22
100557.59
100540.8
100524.71
100526.07
100555.84
100569.88
96858.01
99667.739
100374.28
102260.7
103522.65
104829.03
105920.11
106848.25
107601.25
108185.68
108613.35
108900.64
109065.84
109127.57
109103.57
109009.97
108860.98
108668.82
108443.77
108194.4
107927.73
107649.47
107364.26
107075.77
106786.96
106500.16
106217.19
105939.46
105668.07
105403.84
105147.37
104899.1
104659.31
104428.2
104205.85
103992.27
103787.43
103591.24
103403.58
103224.29
103053.2
102890.11
102734.83
102587.13
102446.78
102313.57
102187.26
102067.62
101954.41
101847.41
101746.38
101651.11
101561.36
101476.92
101397.57
101323.11
101253.33
101188.03
101127.02
101070.12
101017.14
100967.9
100922.24
100880
100841.01
100805.13
100772.26
100742.24
100714.9
100690.02
100667.54
100647.75
100631.05
100616.8
100602.48
100586.03
100572.38
100575.94
100602.4
100610.56
99949.551
103136.01
104142.36
106087.32
107382.12
108533.7
109433.15
110105.98
110570.93
110855.32
110987.5
110995.1
110903.19
110733.6
110504.75
110231.82
109927.15
109600.58
109259.93
108911.32
108559.53
108208.27
107860.36
107517.98
107182.74
106855.86
106538.2
106230.37
105932.78
105645.68
105369.19
105103.33
104848.04
104603.22
104368.7
104144.29
103929.78
103724.91
103529.44
103343.1
103165.61
102996.72
102836.13
102683.57
102538.76
102401.43
102271.32
102148.15
102031.66
101921.6
101817.72
101719.77
101627.52
101540.73
101459.17
101382.63
101310.9
101243.77
101181.05
101122.53
101068.05
101017.41
100970.46
100927.01
100886.94
100850.09
100816.34
100785.55
100757.53
100732.12
100709.31
100689.4
100672.55
100657.9
100643.29
100627.75
100616.53
100621.23
100643.52
100647.43
104132.56
107526.81
108727.95
110401.15
111508.47
112320.08
112836.62
113113.46
113195.59
113126.13
112941.37
112671.31
112339.86
111965.79
111563.59
111144.32
110716.34
110285.94
109857.78
109435.32
109021.08
108616.84
108223.89
107843.06
107474.9
107119.72
106777.66
106448.7
106132.74
105829.62
105539.08
105260.87
104994.67
104740.17
104497.04
104264.92
104043.48
103832.38
103631.25
103439.77
103257.6
103084.4
102919.86
102763.65
102615.46
102474.99
102341.94
102216.04
102096.98
101984.51
101878.36
101778.28
101684.01
101595.31
101511.96
101433.72
101360.39
101291.75
101227.6
101167.76
101112.02
101060.23
101012.2
100967.78
100926.81
100889.17
100854.72
100823.31
100794.78
100769
100746.01
100726.03
100709.01
100694.08
100679.59
100665.42
100656.34
100660.85
100678.16
100679.48
109331.56
112674.91
113777.98
114885.81
115480.24
115749.33
115757.92
115579.36
115267.39
114864.06
114400.49
113899.58
113377.91
112847.37
112316.44
111791.07
111275.42
110772.31
110283.63
109810.57
109353.82
108913.73
108490.36
108083.63
107693.3
107319.05
106960.48
106617.19
106288.71
105974.59
105674.36
105387.54
105113.68
104852.31
104602.99
104365.27
104138.75
103922.99
103717.6
103522.18
103336.37
103159.79
102992.09
102832.93
102681.97
102538.89
102403.39
102275.15
102153.9
102039.34
101931.21
101829.24
101733.18
101642.78
101557.81
101478.04
101403.26
101333.24
101267.8
101206.74
101149.87
101097.01
101048.01
101002.69
100960.91
100922.55
100887.46
100855.5
100826.52
100800.45
100777.31
100757.2
100739.97
100724.88
100710.89
100698.34
100690.89
100693.86
100705.32
100705.46
115491.53
117983.44
118581.56
118850.4
118746.22
118409.97
117920.62
117338.39
116703.47
116043.04
115375.11
114711.49
114059.84
113425
112809.9
112216.23
111644.8
111095.87
110569.31
110064.73
109581.59
109119.27
108677.06
108254.26
107850.13
107463.95
107095.03
106742.67
106406.21
106085.02
105778.47
105486
105207.02
104941.01
104687.45
104445.84
104215.72
103996.62
103788.12
103589.8
103401.25
103222.09
103051.96
102890.48
102737.32
102592.15
102454.65
102324.51
102201.43
102085.13
101975.33
101871.77
101774.18
101682.32
101595.96
101514.87
101438.82
101367.61
101301.04
101238.91
101181.04
101127.25
101077.38
101031.27
100988.78
100949.78
100914.12
100881.67
100852.31
100825.97
100802.65
100782.36
100764.9
100749.76
100736.41
100725.3
100718.75
100719.57
100726.01
100726.24
122066.66
122500.56
122276.95
121723.4
120988.38
120162.49
119301.31
118436.42
117586.1
116760.45
115964.79
115201.58
114471.59
113774.58
113109.74
112475.95
111871.91
111296.27
110747.67
110224.79
109726.35
109251.14
108798.01
108365.87
107953.73
107560.61
107185.64
106827.97
106486.82
106161.45
105851.17
105555.31
105273.26
105004.44
104748.28
104504.28
104271.92
104050.72
103840.25
103640.06
103449.74
103268.89
103097.14
102934.11
102779.47
102632.87
102493.98
102362.51
102238.14
102120.59
102009.59
101904.86
101806.15
101713.21
101625.79
101543.69
101466.67
101394.53
101327.07
101264.08
101205.4
101150.85
101100.26
101053.47
101010.36
100970.77
100934.57
100901.65
100871.9
100845.24
100821.65
100801.07
100783.32
100768.1
100755.22
100745.06
100738.81
100737.61
100740.27
100741.07
125926.15
125298.56
124379.26
123324.89
122238.9
121165.31
120126.7
119132.29
118185.47
117286.42
116433.8
115625.53
114859.21
114132.39
113442.65
112787.71
112165.42
111573.8
111011
110475.34
109965.27
109479.35
109016.27
108574.83
108153.9
107752.46
107369.55
107004.28
106655.83
106323.43
106006.36
105703.93
105415.53
105140.54
104878.41
104628.6
104390.61
104163.95
103948.17
103742.84
103547.52
103361.83
103185.39
103017.82
102858.79
102707.94
102564.95
102429.52
102301.33
102180.11
102065.58
101957.45
101855.49
101759.42
101669.03
101584.08
101504.34
101429.62
101359.71
101294.4
101233.53
101176.91
101124.38
101075.79
101030.99
100989.84
100952.21
100917.99
100887.08
100859.4
100834.89
100813.48
100795
100779.3
100766.33
100756.36
100749.91
100747.38
100747.92
100749.18
104027.98
103992.04
104018.35
104045.13
104060.34
104052
104019.56
103977.86
103930.15
103871.57
103800.04
103718.4
103629.94
103538.76
103445.2
103349.27
103251.18
103151.27
103049.83
102947.09
102843.3
102738.69
102633.47
102527.84
102422
102316.13
102210.42
102105.02
102000.11
101895.86
101792.43
101689.96
101588.62
101488.55
101389.91
101292.84
101197.48
101103.99
101012.5
100923.16
100836.11
100751.5
100669.47
100590.15
100513.69
100440.23
100369.89
100302.8
100239.09
100178.86
100122.24
100069.29
100020.12
99974.786
99933.331
99895.79
99862.175
99832.476
99806.657
99784.656
99766.379
99751.713
99740.525
99732.649
99727.932
99726.097
99727.117
99730.255
99736.451
99742.807
99754.743
99760.441
99782.112
99778.983
99820.974
99791.023
99870.974
99797.343
99925.101
99805.838
103043.4
103037.2
103060.12
103080.84
103083.56
103082.42
103075.22
103061.56
103038.36
103009.61
102974.35
102934.12
102888.32
102837.86
102782.74
102723.51
102660.33
102593.49
102523.27
102449.95
102373.82
102295.15
102214.22
102131.32
102046.73
101960.7
101873.53
101785.45
101696.73
101607.61
101518.33
101429.12
101340.21
101251.82
101164.15
101077.43
100991.85
100907.6
100824.89
100743.9
100664.82
100587.84
100513.12
100440.85
100371.19
100304.31
100240.36
100179.49
100121.83
100067.52
100016.67
99969.388
99925.756
99885.842
99849.697
99817.352
99788.814
99764.066
99743.067
99725.744
99711.995
99701.697
99694.708
99690.856
99689.973
99691.787
99696.23
99702.643
99711.791
99721.128
99735.389
99744.048
99767.077
99767.041
99809.197
99783.101
99862.784
99790.987
99922.316
99797.846
102406.05
102400.85
102400.31
102402.32
102397.74
102392.75
102383.23
102373.48
102358.77
102341.68
102319.45
102294.31
102264.49
102231.27
102193.96
102153.09
102108.6
102060.7
102009.54
101955.28
101898.13
101838.26
101775.89
101711.21
101644.44
101575.79
101505.49
101433.75
101360.8
101286.88
101212.2
101137
101061.51
100985.96
100910.58
100835.59
100761.22
100687.7
100615.24
100544.06
100474.38
100406.42
100340.36
100276.43
100214.81
100155.68
100099.24
100045.63
99995.019
99947.553
99903.357
99862.545
99825.209
99791.421
99761.235
99734.684
99711.772
99692.48
99676.758
99664.525
99655.676
99650.079
99647.584
99648.015
99651.192
99656.848
99664.883
99674.702
99686.938
99699.311
99716.056
99727.607
99752.247
99755.014
99797.762
99774.955
99854.829
99784.702
99919.56
99790.276
101954.08
101941.82
101926.19
101910.54
101895.59
101882.49
101862.62
101844.45
101822.31
101800.94
101775.85
101750.62
101722.33
101692.96
101661.12
101627.49
101591.69
101553.83
101513.84
101471.73
101427.53
101381.26
101332.97
101282.73
101230.62
101176.75
101121.24
101064.22
101005.85
100946.28
100885.7
100824.29
100762.25
100699.78
100637.09
100574.4
100511.92
100449.88
100388.51
100328.02
100268.66
100210.64
100154.2
100099.53
100046.87
99996.397
99948.32
99902.819
99860.063
99820.208
99783.395
99749.742
99719.349
99692.294
99668.632
99648.399
99631.597
99618.202
99608.159
99601.381
99597.758
99597.152
99599.409
99604.346
99611.776
99621.437
99633.207
99646.541
99661.971
99677.43
99696.769
99711.169
99737.597
99742.975
99786.625
99766.729
99847.132
99778.529
99916.899
99783.073
101413.03
101396.67
101378.36
101359.1
101339.04
101322.87
101302.14
101285.23
101263.89
101245.49
101223.44
101203.04
101179.92
101157.1
101132.42
101106.92
101079.97
101051.73
101022
100990.77
100957.98
100923.6
100887.61
100850.02
100810.85
100770.13
100727.93
100684.32
100639.38
100593.24
100546.01
100497.82
100448.84
100399.23
100349.17
100298.84
100248.44
100198.19
100148.3
100098.99
100050.48
100003.01
99956.794
99912.057
99869.018
99827.887
99788.866
99752.147
99717.909
99686.314
99657.507
99631.612
99608.733
99588.951
99572.324
99558.884
99548.634
99541.543
99537.55
99536.564
99538.468
99543.123
99550.368
99560.018
99571.879
99585.695
99601.326
99618.275
99636.985
99655.583
99677.589
99694.818
99723.147
99731.061
99775.758
99758.58
99839.651
99772.522
99914.114
99776.35
100778.64
100768.7
100759.18
100749.34
100736.63
100729.15
100715.32
100706.83
100692.46
100682.27
100667.35
100655.18
100639.85
100625.61
100609.45
100592.89
100575.08
100556.33
100536.4
100515.28
100492.92
100469.3
100444.38
100418.15
100390.61
100361.76
100331.62
100300.23
100267.65
100233.93
100199.16
100163.44
100126.88
100089.6
100051.77
100013.54
99975.071
99936.565
99898.212
99860.219
99822.798
99786.165
99750.538
99716.135
99683.17
99651.853
99622.385
99594.96
99569.754
99546.933
99526.641
99509.001
99494.117
99482.07
99472.916
99466.683
99463.37
99462.939
99465.322
99470.423
99478.121
99488.271
99500.71
99515.251
99531.694
99549.79
99569.387
99590.031
99612.088
99633.869
99658.583
99678.614
99708.925
99719.371
99765.158
99750.585
99832.382
99766.727
99911.19
99770.098
100154.6
100152.51
100150.53
100150.16
100144.58
100145.73
100138.94
100139.02
100131.97
100130.71
100123.44
100119.94
100112.63
100106.94
100099.03
100090.96
100081.63
100071.62
100060.66
100048.76
100035.89
100022.01
100007.1
99991.14
99974.099
99955.976
99936.771
99916.498
99895.184
99872.868
99849.605
99825.468
99800.541
99774.928
99748.745
99722.128
99695.222
99668.191
99641.206
99614.451
99588.12
99562.411
99537.525
99513.668
99491.042
99469.846
99450.275
99432.511
99416.727
99403.079
99391.705
99382.723
99376.233
99372.308
99370.999
99372.329
99376.284
99382.821
99391.862
99403.305
99417.025
99432.873
99450.683