/*--------------------------------*- C++ -*----------------------------------*\
| =========                 |                                                 |
| \\      /  F ield         | OpenFOAM: The Open Source CFD Toolbox           |
|  \\    /   O peration     | Version:  2512                                  |
|   \\  /    A nd           | Website:  www.openfoam.com                      |
|    \\/     M anipulation  |                                                 |
\*---------------------------------------------------------------------------*/
FoamFile
{
    version     2.0;
    format      ascii;
    arch        "LSB;label=32;scalar=64";
    class       surfaceScalarField;
    location    "0.147";
    object      phi;
}
// * * * * * * * * * * * * * * * * * * * * * * * * * * * * * * * * * * * * * //

dimensions      [1 0 -1 0 0 0 0];

oriented        oriented;

internalField   nonuniform List<scalar> 
31760
(
-0.00063993323
-0.051020473
0.051660227
-0.0016050736
-0.064439806
0.0654049
-0.0025880039
-0.062895459
0.063880346
-0.003607425
-0.06869864
0.069717949
-0.0046802813
-0.070261032
0.071333839
-0.005782208
-0.074606178
0.075708128
-0.0069539993
-0.077481692
0.078653534
-0.0081648847
-0.0815262
0.082737218
-0.0094360274
-0.085129692
0.086400996
-0.010766081
-0.089264374
0.090594647
-0.012151504
-0.093394129
0.094779815
-0.013604491
-0.097813967
0.09926726
-0.01511923
-0.10239218
0.10390727
-0.016704315
-0.10720016
0.10878563
-0.018359094
-0.11222245
0.11387767
-0.020088429
-0.11747748
0.11920729
-0.021894916
-0.12297268
0.12477968
-0.023781773
-0.1287197
0.13060712
-0.025752224
-0.13472951
0.13670056
-0.027809664
-0.1410134
0.14307149
-0.029957526
-0.14758379
0.14973234
-0.032199569
-0.15445265
0.15669543
-0.03453939
-0.16163357
0.16397418
-0.036980899
-0.16914028
0.17158263
-0.039527074
-0.1769873
0.17953437
-0.042182503
-0.18518875
0.18784514
-0.044951087
-0.19376086
0.19653047
-0.047836262
-0.20272024
0.20560651
-0.050841535
-0.21208381
0.21509025
-0.053970967
-0.22186962
0.2250003
-0.057227882
-0.23209661
0.23535486
-0.060615634
-0.24278457
0.24617375
-0.06413706
-0.25395498
0.25747794
-0.067795236
-0.26562895
0.26928876
-0.071592183
-0.27783054
0.28162924
-0.075529596
-0.29058402
0.29452332
-0.079608837
-0.30391512
0.30799638
-0.083830411
-0.31785153
0.32207527
-0.088194163
-0.33242126
0.33678734
-0.092698796
-0.34765578
0.35216291
-0.097342326
-0.36358687
0.36823308
-0.10212133
-0.38024836
0.38503024
-0.1070312
-0.39767635
0.40258932
-0.1120661
-0.41590878
0.42094702
-0.11721829
-0.43498609
0.44014186
-0.12247858
-0.45495002
0.46021415
-0.12783536
-0.47584558
0.48120649
-0.13327565
-0.49771925
0.503164
-0.13878391
-0.52062123
0.52613428
-0.14434175
-0.54460342
0.55016642
-0.14992807
-0.56972034
0.57531221
-0.15551931
-0.59603009
0.6016273
-0.16108804
-0.62359308
0.62916822
-0.16660325
-0.65247293
0.65799503
-0.17203039
-0.68273619
0.68817074
-0.17732949
-0.7144534
0.71976046
-0.18245641
-0.74769758
0.75283305
-0.1873617
-0.78254532
0.78745979
-0.19198888
-0.81907716
0.82371421
-0.19627574
-0.85737679
0.86167424
-0.20015212
-0.89753155
0.90141933
-0.2035401
-0.93963245
0.9430327
-0.20635228
-0.98377504
0.98660042
-0.20849126
-1.0300587
1.0322119
-0.20984818
-1.0785852
1.0799573
-0.21030202
-1.1294604
1.1299305
-0.20971652
-1.1827918
1.1822236
-0.20794615
-1.2386885
1.2369366
-0.20482408
-1.2972684
1.2941659
-0.20016324
-1.358651
1.354011
-0.19376118
-1.422958
1.416578
-0.1853979
-1.4903106
1.4819706
-0.17482032
-1.5608365
1.5502834
-0.1617622
-1.6346666
1.6216338
-0.14590409
-1.7119602
1.6961281
-0.12701912
-1.7928588
1.7739999
-0.10433367
-1.8775042
1.8548431
-0.078563553
-1.9665287
1.9407881
-0.047169184
-2.0581548
2.0267766
-2.1572342
2.1224316
-0.00063512591
-0.050385091
-0.0015054212
-0.063569209
-0.002395532
-0.062005648
-0.0033556686
-0.067738079
-0.0043258834
-0.069290411
-0.0053726672
-0.073558994
-0.0064352574
-0.0764187
-0.0075775109
-0.08038355
-0.0087455471
-0.083961252
-0.0099882226
-0.088021292
-0.01127338
-0.092108555
-0.012626396
-0.096460525
-0.014036477
-0.10098166
-0.015513251
-0.10572292
-0.017056582
-0.11067864
-0.018670785
-0.11586278
-0.020357986
-0.12128495
-0.022121991
-0.12695514
-0.023966021
-0.13288488
-0.025893678
-0.13908512
-0.027908633
-0.14556816
-0.030014157
-0.15234641
-0.03221437
-0.1594326
-0.034512976
-0.16684086
-0.036914791
-0.17458462
-0.039422645
-0.18267996
-0.042041254
-0.19114126
-0.044774381
-0.19998605
-0.047626341
-0.20923071
-0.050600745
-0.218894
-0.05370172
-0.22899433
-0.056932652
-0.23955224
-0.060296903
-0.25058923
-0.063797529
-0.26212671
-0.067437023
-0.27418932
-0.071217785
-0.28680141
-0.075141059
-0.29998986
-0.079208425
-0.31378203
-0.083419299
-0.32820809
-0.087773342
-0.34329926
-0.092269011
-0.35908854
-0.096903251
-0.37561126
-0.10167173
-0.39290479
-0.1065694
-0.41100779
-0.11158919
-0.42996273
-0.11672252
-0.44981284
-0.12195914
-0.47060481
-0.12728639
-0.49238754
-0.13268992
-0.51521289
-0.13815312
-0.53913504
-0.14365655
-0.56421132
-0.1491781
-0.59050252
-0.15469247
-0.61807222
-0.1601713
-0.64698713
-0.16558243
-0.67731756
-0.1708895
-0.70913826
-0.17605196
-0.74252643
-0.18102422
-0.77756373
-0.18575488
-0.81433646
-0.19018703
-0.85293384
-0.19425657
-0.89345038
-0.1978921
-0.9359844
-0.20101348
-0.98064018
-0.2035325
-1.0275252
-0.20534947
-1.0767527
-0.20635493
-1.1284383
-0.20642306
-1.1827059
-0.20541847
-1.2396741
-0.20319036
-1.2994763
-0.19956999
-1.3622498
-0.19437311
-1.428132
-0.1873929
-1.4972665
-0.17840315
-1.5698008
-0.167151
-1.6458922
-0.15336997
-1.7257139
-0.13675821
-1.8094434
-0.11690165
-1.8973339
-0.093810026
-1.9895924
-0.066099212
-2.0858493
-2.1884021
-0.00057160091
-0.049813306
-0.0013837491
-0.062756826
-0.0021901424
-0.061199159
-0.0030969742
-0.066831005
-0.0039874903
-0.068399684
-0.0049660248
-0.0725802
-0.0059437796
-0.075440683
-0.0070068823
-0.079320163
-0.008087688
-0.082880149
-0.0092423302
-0.086866332
-0.010435875
-0.090914673
-0.01169382
-0.095202222
-0.013006254
-0.099668838
-0.014381954
-0.10434682
-0.015821348
-0.10923881
-0.017328136
-0.11435552
-0.018905635
-0.11970695
-0.020556812
-0.12530343
-0.022285934
-0.1311552
-0.024095826
-0.13727462
-0.025990972
-0.14367237
-0.027974892
-0.1503618
-0.030051464
-0.15735529
-0.032225477
-0.16466606
-0.034500205
-0.17230904
-0.036880877
-0.18029839
-0.039370964
-0.1886502
-0.041975566
-0.19738041
-0.04469828
-0.20650689
-0.047544305
-0.21604678
-0.05051681
-0.22602055
-0.05362019
-0.23644749
-0.056858327
-0.24734962
-0.060233984
-0.25874948
-0.063750835
-0.27067077
-0.067411132
-0.28313929
-0.071217196
-0.29618183
-0.075169625
-0.30982749
-0.079269506
-0.32410593
-0.083516391
-0.33904992
-0.08790855
-0.35469374
-0.092443908
-0.37107305
-0.097119121
-0.3882265
-0.10192875
-0.40619485
-0.1068668
-0.42502111
-0.11192529
-0.44475049
-0.11709499
-0.46543094
-0.12236396
-0.48711407
-0.12771964
-0.50985236
-0.13314636
-0.53370309
-0.13862592
-0.55872611
-0.14413891
-0.58498344
-0.14966203
-0.61254254
-0.15516936
-0.64147272
-0.16063175
-0.67184755
-0.16601627
-0.70374552
-0.17128638
-0.73724748
-0.17639993
-0.77244067
-0.18131144
-0.8094147
-0.18596846
-0.84826578
-0.19031353
-0.8890934
-0.19428162
-0.93200348
-0.19780111
-0.97710686
-0.20079112
-1.0245203
-0.20316167
-1.0743661
-0.20481153
-1.1267712
-0.20563234
-1.1818666
-0.20549793
-1.2397889
-0.20426869
-1.3006845
-0.20179655
-1.3646995
-0.19790828
-1.4319964
-0.19242204
-1.5027275
-0.18512654
-1.5770697
-0.17579707
-1.6551939
-0.16418477
-1.7372977
-0.15000325
-1.8235964
-0.13295904
-1.9143492
-0.11280936
-2.009714
-0.088777941
-2.1098617
-2.2158322
-0.00051675884
-0.049296432
-0.0012682234
-0.062005179
-0.0020003364
-0.060466729
-0.0028495303
-0.065981627
-0.003675282
-0.067573752
-0.0045868503
-0.071668411
-0.005488306
-0.074538988
-0.0064778966
-0.078330313
-0.0074790664
-0.0818787
-0.0085529527
-0.085792147
-0.0096625977
-0.089804706
-0.010833688
-0.094030788
-0.012057406
-0.098444752
-0.01334152
-0.10306231
-0.014687489
-0.10789242
-0.016099166
-0.1129434
-0.017579808
-0.11822583
-0.019132789
-0.12374994
-0.020761561
-0.12952588
-0.022470461
-0.13556514
-0.024262648
-0.14187956
-0.026143185
-0.14848059
-0.028115987
-0.15538177
-0.030185061
-0.16259622
-0.03235559
-0.17013769
-0.034631568
-0.17802153
-0.037018082
-0.18626274
-0.039519536
-0.19487794
-0.042141453
-0.20388388
-0.044887267
-0.2132998
-0.047762198
-0.22314436
-0.050770698
-0.23343764
-0.053916556
-0.24420232
-0.057203749
-0.25546072
-0.060635779
-0.26723706
-0.064215192
-0.27955806
-0.067944282
-0.29245078
-0.07182504
-0.30594462
-0.075857875
-0.32007082
-0.080042882
-0.33486246
-0.084379494
-0.35035448
-0.088865054
-0.36658463
-0.093496768
-0.3835917
-0.098270265
-0.40141803
-0.1031796
-0.42010817
-0.10821826
-0.43970795
-0.11337652
-0.46026849
-0.11864542
-0.48184063
-0.12401214
-0.50448073
-0.12946303
-0.52824691
-0.1349824
-0.55320102
-0.14055164
-0.57940803
-0.14615048
-0.60693703
-0.15175607
-0.63585993
-0.15734135
-0.66625451
-0.16287795
-0.69820055
-0.16833243
-0.73178398
-0.17366793
-0.76709543
-0.17884329
-0.80422884
-0.18381208
-0.84328567
-0.18852259
-0.88437068
-0.19291696
-0.92759593
-0.19693099
-0.97307861
-0.20049236
-1.0209436
-0.20352062
-1.0713213
-0.20592782
-1.1243463
-0.2076085
-1.1801669
-0.20845667
-1.2389203
-0.20834391
-1.3007755
-0.207138
-1.3658822
-0.20468612
-1.4344234
-0.20081229
-1.5065749
-0.19533939
-1.5825149
-0.18805547
-1.6624489
-0.17873942
-1.746584
-0.16713602
-1.8351698
-0.15298304
-1.9284717
-0.1359958
-2.0266724
-0.11566134
-2.1301746
-2.2393688
-0.00046292441
-0.04883337
-0.0011678134
-0.061300103
-0.0018231868
-0.059811218
-0.0026124649
-0.065192132
-0.0033618784
-0.066824085
-0.0042163964
-0.070813656
-0.0050511234
-0.073704013
-0.0059749326
-0.077406239
-0.0069051538
-0.080948198
-0.0079060171
-0.084790986
-0.0089414101
-0.088768996
-0.010035872
-0.09293599
-0.011182679
-0.097297586
-0.012388381
-0.10185623
-0.013655142
-0.10662525
-0.014986082
-0.11161202
-0.016384906
-0.11682654
-0.017855373
-0.12227898
-0.019401159
-0.12797956
-0.0210263
-0.13393943
-0.022735516
-0.14016973
-0.024532182
-0.14668327
-0.026421846
-0.15349141
-0.02840914
-0.16060818
-0.030498645
-0.16804738
-0.032695707
-0.17582361
-0.035005618
-0.18395191
-0.037433408
-0.19244916
-0.039984109
-0.20133211
-0.042663037
-0.21061972
-0.045475193
-0.22033097
-0.048425177
-0.23048632
-0.051517482
-0.24110857
-0.054756594
-0.25222006
-0.058145804
-0.26384618
-0.061688318
-0.27601374
-0.06538675
-0.2887504
-0.069243099
-0.30208617
-0.073258198
-0.31605345
-0.077432498
-0.33068571
-0.081764992
-0.34601934
-0.086254526
-0.36209223
-0.090897809
-0.37894532
-0.095691136
-0.39662135
-0.10063
-0.41516568
-0.10570737
-0.43462666
-0.11091596
-0.45505567
-0.11624656
-0.47650545
-0.12168837
-0.49903396
-0.12722976
-0.52270015
-0.13285617
-0.5475688
-0.13855209
-0.57370584
-0.14429938
-0.60118295
-0.15007766
-0.63007433
-0.15586448
-0.66045977
-0.16163401
-0.69242247
-0.16735696
-0.7260518
-0.17300189
-0.76144053
-0.17853208
-0.79868789
-0.18390745
-0.83789867
-0.18908216
-0.87918341
-0.19400562
-0.9226589
-0.19862084
-0.96844874
-0.20286463
-1.016684
-0.20666611
-1.0675028
-0.20994468
-1.1210493
-0.21261502
-1.1774768
-0.21457128
-1.2369429
-0.21571292
-1.2996112
-0.21590682
-1.365664
-0.21502529
-1.4352791
-0.21291486
-1.5086578
-0.20940873
-1.585992
-0.20432355
-1.6675038
-0.19745579
-1.7534206
-0.1885784
-1.8440156
-0.1774624
-1.9395557
-0.16382256
-2.0402829
-0.14728973
-2.1466837
-2.2588153
-0.00041318822
-0.048420053
-0.0010769834
-0.06063613
-0.001670371
-0.059217656
-0.0024043
-0.064458009
-0.0030765985
-0.066151596
-0.0038799595
-0.070010076
-0.0046471093
-0.072936633
-0.0055107051
-0.076542395
-0.0063768041
-0.080081835
-0.0073164913
-0.083851017
-0.0082920657
-0.08779312
-0.0093243656
-0.091903369
-0.010409004
-0.096212602
-0.011550956
-0.10071391
-0.012752901
-0.10542291
-0.014018731
-0.11034577
-0.015351938
-0.11549288
-0.016756411
-0.12087402
-0.018236663
-0.12649879
-0.019796711
-0.13237883
-0.021441679
-0.13852417
-0.023176421
-0.1449479
-0.025006126
-0.15166102
-0.026935959
-0.15867761
-0.028971602
-0.16601095
-0.031118947
-0.17367541
-0.033382822
-0.18168712
-0.035769636
-0.19006136
-0.038284802
-0.19881588
-0.040933821
-0.20796956
-0.04372241
-0.21754115
-0.046655272
-0.22755213
-0.049737931
-0.23802448
-0.052973803
-0.24898264
-0.05636751
-0.2604508
-0.059922487
-0.27245696
-0.063641022
-0.28502992
-0.067525173
-0.29819991
-0.071576541
-0.3119998
-0.075795229
-0.32646455
-0.080181147
-0.34163075
-0.08473229
-0.3575382
-0.089446909
-0.37422758
-0.094321722
-0.39174315
-0.099351614
-0.41013213
-0.10453145
-0.42944286
-0.1098554
-0.44972742
-0.11531456
-0.47104164
-0.12090091
-0.49344258
-0.12660299
-0.51699262
-0.13241012
-0.54175576
-0.13830828
-0.5678013
-0.14428237
-0.59520194
-0.15031528
-0.62403393
-0.15638764
-0.65437931
-0.16247767
-0.68632368
-0.16856163
-0.71995837
-0.17461145
-0.75538048
-0.18059661
-0.79269166
-0.18648205
-0.83200126
-0.19222958
-0.87342294
-0.19779521
-0.91707927
-0.20313023
-0.96309858
-0.20817968
-1.0116182
-0.21288202
-1.0627828
-0.21716813
-1.1167442
-0.22096067
-1.1736638
-0.22417545
-1.2337061
-0.22671046
-1.2970526
-0.22846499
-1.3638843
-0.22931502
-1.4344021
-0.22912955
-1.5088146
-0.22776148
-1.5873297
-0.22504626
-1.6701873
-0.22080383
-1.7576305
-0.21483798
-1.8499482
-0.20693186
-1.9474281
-0.19683277
-2.0503516
-0.18425874
-2.1592319
-2.2739445
-0.00037059937
-0.04804933
-0.0010035711
-0.060002988
-0.0015423023
-0.058678758
-0.0022302947
-0.063769829
-0.0028454333
-0.065536265
-0.003597938
-0.069257359
-0.0043121605
-0.072222186
-0.0051146855
-0.075739631
-0.0059406332
-0.079255631
-0.0068334555
-0.082957922
-0.0077620367
-0.086864246
-0.0087435484
-0.090921546
-0.0097770059
-0.095178811
-0.010866735
-0.099623823
-0.012016725
-0.10427254
-0.013230493
-0.1091316
-0.014512906
-0.11421003
-0.015868075
-0.11951838
-0.017300818
-0.12506554
-0.01881656
-0.13086254
-0.020419939
-0.13692021
-0.02211721
-0.14325
-0.023913649
-0.14986391
-0.025815023
-0.15677551
-0.027827778
-0.16399742
-0.02995766
-0.17154469
-0.032211678
-0.17943219
-0.034595522
-0.18767654
-0.037115064
-0.19629529
-0.039777059
-0.20530643
-0.042586658
-0.21473032
-0.045549591
-0.22458787
-0.04867067
-0.23490197
-0.051955137
-0.24569662
-0.05540615
-0.25699811
-0.059027465
-0.26883383
-0.062822259
-0.28123316
-0.06679225
-0.2942278
-0.070938571
-0.30785118
-0.07526185
-0.32213878
-0.079762001
-0.3371279
-0.084437704
-0.35285958
-0.089287317
-0.3693748
-0.094307583
-0.38671946
-0.099495479
-0.40494052
-0.10484635
-0.42408796
-0.11035463
-0.44421477
-0.11601472
-0.46537682
-0.12181855
-0.48763362
-0.12775862
-0.511047
-0.13382482
-0.53568354
-0.14000673
-0.56161286
-0.14629263
-0.58890898
-0.15266834
-0.61765057
-0.1591187
-0.64792066
-0.16562585
-0.67980755
-0.1721705
-0.71340399
-0.1787302
-0.74881026
-0.18527957
-0.78613089
-0.19179059
-0.8254779
-0.19823058
-0.86696959
-0.20456373
-0.91073165
-0.2107489
-0.95689774
-0.21674037
-1.0056098
-0.22248651
-1.0570184
-0.22792845
-1.1112825
-0.23300072
-1.1685703
-0.23763054
-1.2290534
-0.24173255
-1.292926
-0.24521463
-1.3603759
-0.24797778
-1.4316108
-0.24990398
-1.5068584
-0.25086334
-1.5863386
-0.25071947
-1.6702981
-0.24930899
-1.7590069
-0.24646102
-1.8527612
-0.24199362
-1.9518599
-0.23567516
-2.0566382
-0.22726849
-2.1676107
-2.2845361
-0.00032699291
-0.047722217
-0.00093397438
-0.059395845
-0.0014238958
-0.058188679
-0.0020667836
-0.063126761
-0.0026401606
-0.064962699
-0.0033670625
-0.068530253
-0.0040489046
-0.071540128
-0.0048361541
-0.07495215
-0.0056188453
-0.078472692
-0.0064639233
-0.08211258
-0.0073488282
-0.085979057
-0.0082861759
-0.089983897
-0.0092779075
-0.094186754
-0.010327606
-0.098573779
-0.011439641
-0.10316013
-0.012618588
-0.10795225
-0.013868399
-0.11295979
-0.015195063
-0.11819126
-0.016603427
-0.12365668
-0.018099204
-0.12936624
-0.019688282
-0.13533056
-0.021376734
-0.14156093
-0.023170953
-0.14806902
-0.025078288
-0.15486746
-0.027104332
-0.1619706
-0.02925671
-0.16939148
-0.03154171
-0.17714629
-0.033966321
-0.18525096
-0.036537205
-0.19372335
-0.039260577
-0.20258192
-0.042142312
-0.21184736
-0.045188279
-0.22154057
-0.048403718
-0.23168509
-0.051792767
-0.24230601
-0.055359727
-0.25342946
-0.059108136
-0.26508359
-0.063040177
-0.27729914
-0.067158084
-0.29010774
-0.071463143
-0.30354379
-0.075955854
-0.31764355
-0.080635966
-0.33244506
-0.085503373
-0.34798921
-0.090555883
-0.36431908
-0.095791822
-0.38148004
-0.10120859
-0.39951997
-0.10680277
-0.41848968
-0.11257067
-0.43844243
-0.11850791
-0.45943477
-0.12460922
-0.48152708
-0.13086873
-0.50478181
-0.13728004
-0.52926609
-0.14383496
-0.55505126
-0.15052508
-0.58221162
-0.15734026
-0.61082754
-0.16426939
-0.64098302
-0.17129965
-0.67276806
-0.1784158
-0.70627784
-0.1856011
-0.74161412
-0.19283638
-0.77888386
-0.20009949
-0.81820205
-0.20736529
-0.85968998
-0.2146052
-0.90347677
-0.22178644
-0.94970028
-0.22887254
-0.9985061
-0.23582108
-1.0500508
-0.24258519
-1.1044979
-0.24911055
-1.1620228
-0.25533486
-1.2228053
-0.26119088
-1.2870444
-0.26660452
-1.3549348
-0.27148043
-1.4267055
-0.27573015
-1.5025773
-0.27923857
-1.582797
-0.281888
-1.667614
-0.28354358
-1.7573156
-0.28406116
-1.8522069
-0.28327929
-1.9526045
-0.28099634
-2.0588879
-0.27702424
-2.1715526
-2.2903104
-0.00028476626
-0.047437336
-0.00087233103
-0.058808126
-0.0013226812
-0.057738177
-0.0019454304
-0.062503839
-0.0024969126
-0.064411037
-0.0032007955
-0.067826175
-0.0038475173
-0.070893198
-0.0046103023
-0.074189141
-0.0053617201
-0.077721034
-0.0061744747
-0.08129957
-0.0070323072
-0.085120949
-0.0079429449
-0.089072965
-0.0089108413
-0.093218541
-0.009939516
-0.097544765
-0.011034011
-0.10206527
-0.012199165
-0.10678671
-0.013440652
-0.11171788
-0.014763915
-0.11686754
-0.016175005
-0.1222451
-0.01768076
-0.12785995
-0.0192873
-0.13372345
-0.021002263
-0.13984535
-0.022832148
-0.14623847
-0.024784492
-0.1529144
-0.026867032
-0.15988729
-0.029086718
-0.16717096
-0.031451249
-0.17478086
-0.033967656
-0.18273357
-0.036642531
-0.19104742
-0.03948282
-0.19974048
-0.042494704
-0.20883423
-0.045683331
-0.2183506
-0.049053645
-0.22831332
-0.052610478
-0.2387476
-0.056357501
-0.24968073
-0.060297434
-0.26114181
-0.064433092
-0.27316147
-0.068766249
-0.2857724
-0.073297831
-0.29900985
-0.078028785
-0.31291004
-0.082958975
-0.32751209
-0.088087935
-0.34285723
-0.093415258
-0.35898848
-0.098940165
-0.37595158
-0.10466086
-0.39379542
-0.11057583
-0.41257053
-0.11668293
-0.43233079
-0.1229799
-0.45313288
-0.12946419
-0.47503744
-0.13613227
-0.49810793
-0.14298082
-0.52241124
-0.15000554
-0.54801969
-0.15720119
-0.57500854
-0.16456228
-0.60345839
-0.17208163
-0.63345493
-0.17975129
-0.6650889
-0.18756112
-0.69845771
-0.19550066
-0.73366339
-0.20355624
-0.77081614
-0.21171238
-0.81003274
-0.21995151
-0.85143654
-0.22825278
-0.89515998
-0.2365923
-0.94134392
-0.2449419
-0.99013825
-0.25327077
-1.0417022
-0.26154189
-1.0962054
-0.26971452
-1.1538271
-0.27773831
-1.2147567
-0.28556077
-1.2791952
-0.29311639
-1.3473504
-0.30033956
-1.4194516
-0.30715
-1.4957341
-0.31345921
-1.576453
-0.31916355
-1.6618733
-0.32415424
-1.7522875
-0.32831341
-1.8480091
-0.33150357
-1.9493752
-0.33356387
-2.0567926
-0.33432504
-2.170759
-2.2909514
-0.00024635352
-0.04719087
-0.00082270179
-0.058231629
-0.0012428475
-0.057317884
-0.0018905785
-0.061855942
-0.0024230647
-0.063878376
-0.003101874
-0.067147176
-0.0037242551
-0.070270614
-0.0044469625
-0.073466216
-0.0051865989
-0.076981163
-0.0059832151
-0.080502704
-0.0068307323
-0.084273162
-0.007732776
-0.088170634
-0.0086962001
-0.092254805
-0.0097249824
-0.09651565
-0.010824866
-0.10096503
-0.012001629
-0.10560956
-0.01326154
-0.11045755
-0.014611345
-0.11551729
-0.016057918
-0.12079804
-0.017608084
-0.12630926
-0.019270599
-0.13206037
-0.02105207
-0.13806327
-0.022961532
-0.14432835
-0.025006447
-0.15086877
-0.027194823
-0.15769813
-0.029534934
-0.16483001
-0.032034348
-0.17228053
-0.03470019
-0.18006675
-0.037539991
-0.18820655
-0.040559832
-0.19671949
-0.043765367
-0.20562744
-0.047162277
-0.21495233
-0.050754966
-0.22471915
-0.054547566
-0.2349534
-0.058543248
-0.24568331
-0.062744675
-0.25693849
-0.067153903
-0.2687502
-0.071772432
-0.28115166
-0.076601792
-0.29417808
-0.081642441
-0.30786678
-0.086895078
-0.32225662
-0.092360264
-0.33738897
-0.098038281
-0.35330713
-0.10392896
-0.37005728
-0.11003299
-0.38768746
-0.11635073
-0.40624852
-0.12288203
-0.42579485
-0.12962725
-0.44638262
-0.13658651
-0.46807271
-0.14375996
-0.49092853
-0.15114683
-0.51501792
-0.15874731
-0.54041219
-0.16655994
-0.56718828
-0.17458325
-0.5954268
-0.18281524
-0.62521393
-0.19125269
-0.65664168
-0.19989178
-0.68980798
-0.20872694
-0.72481668
-0.21775171
-0.76177883
-0.22695776
-0.80081305
-0.23633417
-0.84204531
-0.24586879
-0.88560925
-0.25554634
-0.93164887
-0.26534915
-0.98031645
-0.27525561
-1.0317752
-0.28524071
-1.086198
-0.29527468
-1.143769
-0.3053239
-1.2046815
-0.31534618
-1.269145
-0.32529643
-1.3373702
-0.33512451
-1.4095913
-0.3447631
-1.4860612
-0.35414799
-1.5670317
-0.36319918
-1.6527841
-0.37183148
-1.7436159
-0.37994569
-1.8398543
-0.38744149
-1.9418383
-0.3941847
-2.0500123
-0.40004213
-2.1648663
-2.2861046
-0.0002137886
-0.046976973
-0.00079183644
-0.057653438
-0.0011900904
-0.056919487
-0.0018485447
-0.061197326
-0.0023526971
-0.063374054
-0.0030252231
-0.066474465
-0.0036462063
-0.069649433
-0.0043635635
-0.072748647
-0.0051049167
-0.076239581
-0.0059012004
-0.079706176
-0.0067558622
-0.083418236
-0.0076695744
-0.087256639
-0.0086506385
-0.091273435
-0.0097038982
-0.095462062
-0.010836045
-0.099832525
-0.012053852
-0.10439137
-0.013364581
-0.10914641
-0.014775683
-0.11410574
-0.016295732
-0.11927751
-0.017932818
-0.12467166
-0.019695391
-0.13029723
-0.021592562
-0.13616549
-0.02363267
-0.14228758
-0.02582463
-0.14867609
-0.028177355
-0.15534463
-0.030698435
-0.16230808
-0.033395875
-0.16958217
-0.036277108
-0.17718451
-0.039348993
-0.18513358
-0.042616813
-0.19345049
-0.046086993
-0.20215598
-0.049763318
-0.21127462
-0.05365044
-0.22083053
-0.057750952
-0.23085126
-0.062067445
-0.24136504
-0.066602596
-0.25240142
-0.071358051
-0.26399266
-0.076335059
-0.27617239
-0.081535084
-0.28897561
-0.086959674
-0.30243952
-0.092610108
-0.31660329
-0.098487972
-0.33150797
-0.10459475
-0.34719694
-0.11093289
-0.36371544
-0.1175046
-0.38111173
-0.12431216
-0.3994366
-0.13135913
-0.41874314
-0.13864793
-0.43908866
-0.14618251
-0.46053253
-0.15396615
-0.48313879
-0.16200268
-0.50697477
-0.17029496
-0.53211271
-0.17884681
-0.55862858
-0.18766156
-0.58660352
-0.19674173
-0.61612448
-0.20608978
-0.64728354
-0.21570777
-0.68017901
-0.22559644
-0.71491607
-0.23575581
-0.75160646
-0.24618449
-0.79037022
-0.25688081
-0.83133361
-0.26783987
-0.87463346
-0.27905598
-0.92041457
-0.29052119
-0.96883148
-0.302225
-1.0200499
-0.31415418
-1.0742456
-0.32629228
-1.1316058
-0.33861677
-1.1923298
-0.35110527
-1.2566272
-0.36372628
-1.3247177
-0.37644037
-1.3968435
-0.38921446
-1.473251
-0.40199221
-1.5542157
-0.41471747
-1.6400188
-0.42732603
-1.730966
-0.43975802
-1.8273794
-0.4519284
-1.9296246
-0.46374943
-2.0381518
-0.47511532
-2.1534617
-2.275358
-0.00019289906
-0.046783968
-0.0007904044
-0.057055794
-0.0011849863
-0.056524766
-0.0018372368
-0.060544918
-0.0023349213
-0.062876204
-0.0030107838
-0.065798422
-0.0036458261
-0.069014196
-0.0043672475
-0.072027018
-0.0051299166
-0.075476687
-0.0059466283
-0.078889224
-0.0068297893
-0.082534814
-0.0077790078
-0.086307141
-0.0088038097
-0.090248329
-0.0099103337
-0.094355212
-0.011106386
-0.098636117
-0.012399982
-0.10309739
-0.013799717
-0.10774626
-0.015314602
-0.11259041
-0.016953463
-0.11763816
-0.018726461
-0.12289813
-0.020642618
-0.1283805
-0.022711829
-0.13409566
-0.024943144
-0.14005559
-0.027345885
-0.14627262
-0.02992877
-0.15276095
-0.032700035
-0.15953595
-0.035666811
-0.16661446
-0.038836293
-0.17401402
-0.042213921
-0.18175485
-0.045805605
-0.18985761
-0.049614984
-0.1983453
-0.05364597
-0.20724222
-0.05790159
-0.21657337
-0.062384101
-0.22636708
-0.067095632
-0.23665171
-0.072038077
-0.24745702
-0.077212797
-0.25881581
-0.082621948
-0.27076093
-0.088267199
-0.28332785
-0.094151043
-0.29655296
-0.10027618
-0.3104752
-0.10664582
-0.32513512
-0.113264
-0.34057527
-0.12013488
-0.35684077
-0.12726325
-0.37397924
-0.134655
-0.39204037
-0.14231592
-0.41107736
-0.15025262
-0.43114667
-0.15847183
-0.45230757
-0.16698102
-0.47462333
-0.17578773
-0.49816125
-0.18490041
-0.52299261
-0.19432678
-0.54919414
-0.20407518
-0.57684633
-0.2141534
-0.6060367
-0.22457024
-0.63685628
-0.23533293
-0.66940496
-0.2464492
-0.70378745
-0.25792626
-0.74011594
-0.2697708
-0.77851101
-0.28198823
-0.81910021
-0.2945835
-0.8620208
-0.30756022
-0.90741891
-0.32092066
-0.95545046
-0.33466582
-1.0062824
-0.34879447
-1.0600927
-0.3633028
-1.1170712
-0.37818389
-1.1774203
-0.39343122
-1.2413492
-0.40902522
-1.3090906
-0.42495379
-1.3808794
-0.44118967
-1.4569772
-0.45770821
-1.537657
-0.47447738
-1.6232075
-0.49145363
-1.713946
-0.50859692
-1.8101909
-0.52585834
-1.9123175
-0.54319257
-2.0207754
-0.56051864
-2.1360931
-2.2582365
-0.00017340636
-0.046610458
-0.00079878701
-0.056430279
-0.001197523
-0.056125895
-0.0018619725
-0.059880316
-0.0023761166
-0.062361897
-0.0030662282
-0.065108134
-0.0037291472
-0.068351087
-0.0044734033
-0.071282558
-0.0052747352
-0.074675133
-0.00613376
-0.078029962
-0.0070691723
-0.081599143
-0.0080811829
-0.085294853
-0.0091801659
-0.089149043
-0.010373962
-0.09316109
-0.01167177
-0.097337955
-0.013083105
-0.10168567
-0.014617926
-0.10621102
-0.016286572
-0.11092131
-0.018099567
-0.11582467
-0.020067116
-0.12093005
-0.022199916
-0.12624712
-0.02450786
-0.13178708
-0.027000422
-0.13756234
-0.029687036
-0.14358526
-0.032575668
-0.1498715
-0.035673724
-0.15643702
-0.03898843
-0.1632988
-0.042524566
-0.17047684
-0.046287181
-0.17799111
-0.050279932
-0.18586363
-0.054505908
-0.194118
-0.058967782
-0.2027789
-0.063666531
-0.21187306
-0.068605016
-0.2214269
-0.07378432
-0.23147056
-0.079206083
-0.24203325
-0.08487294
-0.25314678
-0.090786959
-0.26484455
-0.096952171
-0.27716007
-0.10337225
-0.2901301
-0.11005177
-0.30379266
-0.11699625
-0.31818736
-0.1242124
-0.33335556
-0.13170715
-0.34934214
-0.1394886
-0.36619357
-0.14756576
-0.38395863
-0.155948
-0.40269013
-0.16464555
-0.42244369
-0.17366963
-0.44327758
-0.18303149
-0.46525503
-0.19274358
-0.48844215
-0.2028178
-0.51291076
-0.2132681
-0.53873552
-0.22410737
-0.56599799
-0.23535
-0.59478419
-0.24700946
-0.62518604
-0.25910071
-0.65730197
-0.27163792
-0.69123743
-0.28463545
-0.72710444
-0.29810851
-0.76502273
-0.3120707
-0.80512142
-0.32653635
-0.84753706
-0.3415193
-0.89241626
-0.35703263
-0.93991567
-0.37308841
-0.99020325
-0.38969851
-1.0434572
-0.40687343
-1.0998687
-0.42462258
-1.1596413
-0.44294945
-1.2229901
-0.4618593
-1.2901461
-0.48135242
-1.361349
-0.50142866
-1.4368611
-0.52208109
-1.5169622
-0.54329498
-1.6019491
-0.56506388
-1.6921307
-0.58736473
-1.787842
-0.61018841
-1.8894456
-0.63351378
-1.9974045
-0.65730572
-2.1122537
-2.2341974
-0.00015954814
-0.046450809
-0.00082734477
-0.055762351
-0.0012361269
-0.055716979
-0.0019288035
-0.05918749
-0.0024741503
-0.06181639
-0.0031919848
-0.064390126
-0.003904938
-0.067637945
-0.0046924347
-0.070494859
-0.0055557237
-0.073811624
-0.0064844448
-0.077101005
-0.0075016567
-0.080581672
-0.0086097065
-0.084186525
-0.0098201287
-0.087938318
-0.0111429
-0.091837991
-0.012588813
-0.095891685
-0.014169192
-0.1001049
-0.015895452
-0.10448434
-0.017779142
-0.10903716
-0.019831723
-0.11377159
-0.022064358
-0.11869687
-0.024487504
-0.12382338
-0.027111407
-0.12916254
-0.029945496
-0.13472755
-0.032997448
-0.14053255
-0.036274814
-0.14659331
-0.039783468
-0.15292747
-0.043528061
-0.15955323
-0.047512614
-0.16649123
-0.05173988
-0.17376269
-0.056211778
-0.18139048
-0.060929634
-0.18939878
-0.065895121
-0.19781194
-0.071109312
-0.20665726
-0.07657364
-0.21596083
-0.082290322
-0.22575199
-0.088261828
-0.2360597
-0.094491482
-0.2469149
-0.10098429
-0.25834933
-0.10774459
-0.27039715
-0.11477945
-0.28309239
-0.12209581
-0.29647322
-0.12970305
-0.31057676
-0.13760968
-0.32544527
-0.14582663
-0.34112123
-0.15436594
-0.35764994
-0.16323939
-0.37508049
-0.17246073
-0.39346366
-0.18204453
-0.41285432
-0.19200558
-0.43331046
-0.2023603
-0.45489369
-0.21312507
-0.47767018
-0.22431824
-0.50170972
-0.23595736
-0.52708783
-0.24806167
-0.55388433
-0.26065136
-0.58218429
-0.27374669
-0.61207957
-0.28736853
-0.64366798
-0.30153938
-0.67705331
-0.3162814
-0.71234794
-0.33161703
-0.74967129
-0.34756996
-0.78915124
-0.36416428
-0.83092391
-0.38142401
-0.87513599
-0.39937307
-0.92194423
-0.41803711
-0.97151484
-0.4374406
-1.0240272
-0.45760805
-1.0796725
-0.47856356
-1.1386546
-0.50032902
-1.2011909
-0.52292897
-1.2675097
-0.54638226
-1.3378565
-0.5707064
-1.412495
-0.59591936
-1.4917047
-0.62203823
-1.5757832
-0.64907012
-1.6650495
-0.67702787
-1.7598331
-0.7059227
-1.8604997
-0.73577981
-1.967498
-0.76658941
-2.0813909
-2.2026186
-0.00015188293
-0.046298826
-0.00088137744
-0.05503273
-0.0013026584
-0.055295568
-0.0020402298
-0.058449772
-0.0026343903
-0.061222072
-0.003398373
-0.063625973
-0.004184092
-0.06685204
-0.0050399253
-0.069638826
-0.0059909167
-0.072860413
-0.0070208816
-0.076070804
-0.0081553108
-0.079446984
-0.0094001085
-0.082941449
-0.010768372
-0.086569749
-0.012272187
-0.090333845
-0.013924235
-0.094239275
-0.015737226
-0.09829152
-0.017723886
-0.10249725
-0.019896549
-0.10686403
-0.022267181
-0.11140045
-0.024846939
-0.11611656
-0.02764619
-0.12102352
-0.030673807
-0.12613426
-0.033937449
-0.13146319
-0.037443796
-0.13702543
-0.041197285
-0.14283897
-0.04520188
-0.14892195
-0.049459312
-0.1552948
-0.05397124
-0.16197821
-0.05873857
-0.16899417
-0.063761529
-0.17636624
-0.069040947
-0.18411797
-0.074577316
-0.19227406
-0.080372511
-0.20086043
-0.086428512
-0.20990305
-0.09274903
-0.21942954
-0.09933792
-0.22946871
-0.10620139
-0.24004916
-0.11334565
-0.25120261
-0.12077973
-0.26296039