/*--------------------------------*- C++ -*----------------------------------*\
| =========                 |                                                 |
| \\      /  F ield         | OpenFOAM: The Open Source CFD Toolbox           |
|  \\    /   O peration     | Version:  2512                                  |
|   \\  /    A nd           | Website:  www.openfoam.com                      |
|    \\/     M anipulation  |                                                 |
\*---------------------------------------------------------------------------*/
FoamFile
{
    version     2.0;
    format      ascii;
    arch        "LSB;label=32;scalar=64";
    class       volScalarField;
    location    "0.147";
    object      rho;
}
// * * * * * * * * * * * * * * * * * * * * * * * * * * * * * * * * * * * * * //

dimensions      [1 -3 0 0 0 0 0];

internalField   nonuniform List<scalar> 
16000
(
1.0641989
1.0948328
1.0783267
1.0885702
1.082606
1.0869697
1.0850708
1.0872246
1.0869738
1.0882655
1.0887513
1.0897569
1.0905623
1.0915302
1.0924897
1.0935133
1.0945727
1.0956775
1.0968246
1.0980145
1.099247
1.1005216
1.1018379
1.1031951
1.1045924
1.1060288
1.1075028
1.1090129
1.1105572
1.1121336
1.1137397
1.1153728
1.1170299
1.1187077
1.1204028
1.1221113
1.1238292
1.1255525
1.1272767
1.1289975
1.1307103
1.1324108
1.1340945
1.135757
1.1373941
1.1390019
1.1405765
1.1421145
1.1436127
1.1450682
1.1464785
1.1478414
1.149155
1.150418
1.1516291
1.1527875
1.1538926
1.1549442
1.1559421
1.1568865
1.1577775
1.1586154
1.1594006
1.1601338
1.1608154
1.161446
1.1620264
1.1625574
1.1630395
1.1634729
1.163857
1.1641919
1.1644786
1.1647193
1.1649147
1.1650743
1.1651982
1.1651122
1.1656671
1.1645071
1.0609661
1.0921538
1.0750492
1.0858868
1.079598
1.0843356
1.0822486
1.0846381
1.0843488
1.0857581
1.0862975
1.0873781
1.0882647
1.0893078
1.090353
1.0914608
1.0926096
1.0938058
1.0950475
1.0963345
1.0976666
1.099043
1.1004629
1.1019253
1.1034291
1.1049727
1.1065543
1.1081719
1.1098231
1.1115054
1.1132158
1.1149509
1.1167073
1.1184811
1.1202681
1.1220641
1.1238645
1.1256647
1.1274598
1.1292452
1.131016
1.1327675
1.1344952
1.1361947
1.1378619
1.1394929
1.1410842
1.1426327
1.1441356
1.1455904
1.1469953
1.1483485
1.1496489
1.1508955
1.1520877
1.1532252
1.1543081
1.1553364
1.1563107
1.1572314
1.158099
1.1589141
1.1596774
1.1603897
1.1610516
1.1616639
1.1622273
1.1627425
1.1632101
1.1636302
1.1640023
1.164326
1.1646019
1.1648317
1.1650184
1.1651689
1.1652543
1.1652705
1.1656298
1.1646128
1.058157
1.0896957
1.0723138
1.0833793
1.0770002
1.0818902
1.0798263
1.0822966
1.0820809
1.0835556
1.0841834
1.0853361
1.0863145
1.0874414
1.0885803
1.0897817
1.0910284
1.0923248
1.0936692
1.0950613
1.0965003
1.0979853
1.0995151
1.1010884
1.1027035
1.1043586
1.1060514
1.1077793
1.1095394
1.1113285
1.1131431
1.1149792
1.1168326
1.1186988
1.120573
1.1224503
1.1243258
1.1261941
1.1280501
1.1298887
1.1317049
1.1334939
1.1352512
1.1369724
1.1386537
1.1402915
1.1418828
1.1434248
1.1449155
1.146353
1.1477359
1.1490633
1.1503346
1.1515496
1.1527083
1.1538111
1.1548585
1.1558512
1.15679
1.1576758
1.1585096
1.1592921
1.1600245
1.1607074
1.1613418
1.1619284
1.162468
1.1629613
1.1634088
1.1638106
1.1641661
1.1644746
1.1647365
1.1649534
1.1651298
1.1652661
1.1653326
1.1653997
1.1655754
1.1647878
1.055664
1.0875101
1.0697588
1.0811697
1.0746456
1.079791
1.0777104
1.0803148
1.0801599
1.0817251
1.0824508
1.0836894
1.084774
1.0859978
1.0872438
1.0885516
1.0899085
1.0913169
1.0927755
1.0942836
1.0958402
1.0974441
1.0990938
1.1007876
1.1025233
1.1042984
1.1061102
1.1079555
1.1098305
1.1117313
1.1136536
1.1155926
1.1175434
1.1195006
1.1214588
1.1234125
1.1253559
1.1272835
1.1291896
1.131069
1.1329166
1.1347275
1.1364974
1.1382222
1.1398986
1.1415235
1.1430945
1.1446096
1.1460674
1.1474668
1.1488073
1.1500888
1.1513114
1.1524758
1.1535827
1.1546331
1.155628
1.1565689
1.1574568
1.1582933
1.1590795
1.1598166
1.1605057
1.1611478
1.161744
1.1622949
1.1628014
1.1632641
1.1636835
1.1640595
1.1643915
1.1646785
1.1649203
1.165119
1.1652783
1.1653938
1.1654512
1.1655192
1.1656014
1.16494
1.0535553
1.0857244
1.067651
1.0793733
1.0726297
1.0780676
1.076002
1.0787291
1.078665
1.0803215
1.0811655
1.0824973
1.0836995
1.0850297
1.0863912
1.0878141
1.0892895
1.0908186
1.0924003
1.0940334
1.0957169
1.0974489
1.0992276
1.1010506
1.102915
1.1048176
1.1067548
1.1087225
1.1107161
1.1127307
1.1147609
1.1168013
1.1188457
1.1208882
1.1229226
1.1249425
1.1269419
1.1289147
1.1308552
1.1327579
1.1346178
1.1364304
1.1381918
1.1398985
1.1415478
1.1431373
1.1446656
1.1461315
1.1475345
1.1488747
1.1501524
1.1513684
1.1525237
1.1536198
1.1546581
1.1556402
1.156568
1.1574431
1.1582673
1.1590423
1.1597697
1.1604507
1.1610869
1.1616792
1.1622286
1.1627361
1.1632022
1.1636276
1.1640126
1.1643571
1.1646603
1.1649209
1.1651385
1.165315
1.1654527
1.1655464
1.1655917
1.1656449
1.1656491
1.1651142
1.0518445
1.0843204
1.0659697
1.0780001
1.0712215
1.0767842
1.0747274
1.0776063
1.0776439
1.079399
1.0803712
1.0817989
1.0831248
1.0845684
1.0860536
1.0876019
1.0892069
1.090869
1.0925865
1.094358
1.0961816
1.0980548
1.0999749
1.1019386
1.1039421
1.1059812
1.1080513
1.1101469
1.1122626
1.1143922
1.1165293
1.1186672
1.1207992
1.1229181
1.1250172
1.1270895
1.1291287
1.1311283
1.1330829
1.134987
1.1368361
1.1386262
1.1403541
1.1420173
1.1436139
1.1451428
1.1466035
1.1479961
1.1493211
1.1505796
1.1517732
1.1529035
1.1539725
1.1549824
1.1559355
1.1568339
1.15768
1.158476
1.159224
1.159926
1.1605838
1.1611989
1.1617728
1.1623066
1.1628014
1.1632579
1.1636767
1.1640583
1.164403
1.1647104
1.1649797
1.1652091
1.1653983
1.1655483
1.1656601
1.16573
1.1657602
1.1657844
1.1657332
1.1653009
1.0505288
1.0833113
1.0647074
1.0770439
1.0702068
1.0759496
1.0739657
1.0769515
1.0771213
1.0789409
1.0800506
1.0815828
1.0830465
1.0846207
1.0862471
1.0879395
1.0896932
1.091507
1.0933789
1.0953065
1.0972869
1.0993169
1.1013925
1.1035095
1.1056628
1.1078469
1.1100559
1.112283
1.1145214
1.1167636
1.1190022
1.1212293
1.123437
1.1256178
1.1277641
1.1298688
1.1319251
1.1339272
1.1358695
1.1377474
1.1395571
1.1412958
1.1429611
1.1445518
1.1460675
1.1475082
1.1488748
1.1501688
1.151392
1.1525467
1.1536353
1.1546606
1.1556255
1.1565329
1.1573856
1.1581866
1.1589385
1.1596438
1.1603051
1.1609244
1.1615037
1.1620447
1.1625487
1.1630171
1.1634507
1.1638503
1.1642162
1.1645489
1.1648483
1.1651142
1.1653452
1.1655398
1.1656971
1.1658171
1.1658997
1.1659446
1.1659568
1.1659444
1.1658452
1.1655132
1.0495425
1.0826331
1.0637973
1.0764909
1.0695949
1.0755593
1.0735903
1.0767551
1.0769674
1.0789112
1.0801987
1.0818669
1.0834974
1.0852304
1.0870235
1.088885
1.0908107
1.0927987
1.0948462
1.0969497
1.0991054
1.1013087
1.1035545
1.1058369
1.1081495
1.1104851
1.1128361
1.1151945
1.1175518
1.1198992
1.1222279
1.1245291
1.1267942
1.129015
1.1311837
1.1332932
1.1353371
1.13731
1.1392074
1.1410257
1.1427624
1.144416
1.1459858
1.1474724
1.1488766
1.1502003
1.1514458
1.152616
1.153714
1.1547433
1.1557074
1.15661
1.1574547
1.158245
1.1589844
1.1596761
1.1603231
1.1609282
1.1614941
1.1620228
1.1625166
1.1629769
1.1634051
1.1638025
1.1641699
1.1645077
1.1648164
1.1650959
1.1653463
1.1655669
1.1657564
1.165913
1.1660355
1.1661226
1.1661735
1.1661926
1.166183
1.1661269
1.1659909
1.1657549
1.0489044
1.0822949
1.063244
1.0763656
1.0693026
1.0753924
1.0735611
1.0768321
1.077362
1.0794248
1.0809158
1.0827427
1.0845626
1.0864796
1.0884639
1.090519
1.092641
1.0948265
1.0970716
1.0993715
1.1017209
1.1041135
1.1065424
1.1089999
1.1114777
1.1139668
1.1164578
1.1189409
1.1214059
1.1238429
1.1262418
1.1285931
1.1308878
1.1331173
1.1352743
1.1373522
1.1393456
1.1412502
1.1430632
1.1447826
1.1464078
1.1479392
1.1493782
1.1507271
1.1519887
1.1531666
1.1542647
1.1552873
1.1562386
1.1571233
1.1579459
1.1587106
1.1594217
1.1600832
1.1606988
1.1612721
1.1618063
1.1623042
1.1627683
1.163201
1.1636042
1.1639793
1.1643277
1.1646504
1.164948
1.1652209
1.1654692
1.1656928
1.1658914
1.1660642
1.1662098
1.1663264
1.1664121
1.166464
1.166482
1.1664749
1.16644
1.1663355
1.1661723
1.1660303
1.0486584
1.0823421
1.0630936
1.0765778
1.0694492
1.0759217
1.0742372
1.0776233
1.0783365
1.0805429
1.0822676
1.0842833
1.0863205
1.0884515
1.0906554
1.0929322
1.0952771
1.0976852
1.1001509
1.1026675
1.1052277
1.1078231
1.1104446
1.1130821
1.1157252
1.1183626
1.1209829
1.1235745
1.1261259
1.1286258
1.1310636
1.1334293
1.135714
1.1379098
1.1400103
1.1420104
1.1439066
1.1456965
1.1473796
1.1489564
1.1504285
1.1517988
1.1530709
1.1542491
1.1553383
1.1563437
1.1572706
1.1581246
1.158911
1.1596353
1.1603026
1.1609178
1.1614854
1.1620096
1.1624945
1.1629434
1.1633596
1.1637459
1.1641047
1.1644381
1.164748
1.1650355
1.1653019
1.165548
1.165774
1.1659803
1.1661667
1.1663329
1.1664782
1.1666018
1.1667021
1.1667776
1.1668252
1.1668408
1.1668255
1.1667925
1.1667288
1.1665742
1.1663946
1.1663415
1.0488781
1.0828511
1.0634192
1.0771265
1.0701595
1.0767674
1.0754411
1.0788753
1.0799742
1.0823482
1.084341
1.0865817
1.0888676
1.0912459
1.0937009
1.0962295
1.0988255
1.1014818
1.1041904
1.1069422
1.1097272
1.1125341
1.1153511
1.1181654
1.1209639
1.1237332
1.1264598
1.1291304
1.1317325
1.1342541
1.1366846
1.1390145
1.1412361
1.1433432
1.1453315
1.1471984
1.1489432
1.1505665
1.1520706
1.1534589
1.1547359
1.155907
1.1569782
1.1579557
1.1588462
1.1596563
1.1603926
1.1610617
1.1616696
1.1622223
1.1627251
1.1631833
1.1636015
1.1639839
1.1643344
1.1646562
1.1649525
1.1652258
1.1654783
1.1657118
1.1659279
1.1661276
1.1663118
1.166481
1.1666355
1.166775
1.1668994
1.1670079
1.1670999
1.167174
1.1672289
1.167263
1.1672723
1.1672514
1.1672041
1.1671456
1.1670499
1.1668467
1.166663
1.1666921
1.049622
1.0838829
1.064306
1.0783916
1.0716259
1.0784011
1.0772951
1.0809523
1.0823639
1.0849391
1.0872346
1.0897411
1.0923122
1.094975
1.0977162
1.1005295
1.103406
1.1063356
1.1093071
1.1123081
1.1153249
1.118343
1.1213473
1.124322
1.1272514
1.1301197
1.1329118
1.1356135
1.1382119
1.1406957
1.1430553
1.1452834
1.1473749
1.1493266
1.1511377
1.1528093
1.1543443
1.1557469
1.1570229
1.1581788
1.159222
1.1601602
1.1610014
1.1617537
1.1624252
1.1630234
1.1635558
1.1640294
1.1644508
1.1648258
1.1651601
1.1654586
1.1657258
1.1659657
1.1661819
1.1663775
1.1665549
1.1667166
1.1668644
1.1669997
1.1671238
1.1672375
1.1673412
1.1674352
1.1675195
1.1675937
1.1676573
1.1677095
1.167749
1.1677746
1.1677851
1.1677786
1.1677501
1.1676939
1.167617
1.1675335
1.1674028
1.1671547
1.1669796
1.1670861
1.050877
1.0854219
1.0657364
1.0801707
1.0737147
1.0806459
1.0799589
1.0837634
1.0855946
1.0884184
1.09106
1.0938822
1.0967821
1.0997719
1.102838
1.1059699
1.1091549
1.1123789
1.1156263
1.1188804
1.1221236
1.1253373
1.1285028
1.1316014
1.1346149
1.1375261
1.1403193
1.1429807
1.1454989
1.1478648
1.1500723
1.1521179
1.1540008
1.1557225
1.1572869
1.1586994
1.1599672
1.1610985
1.1621023
1.1629881
1.1637658
1.164445
1.1650353
1.165546
1.1659858
1.166363
1.1666852
1.1669595
1.1671923
1.1673894
1.167556
1.1676968
1.1678158
1.1679165
1.1680021
1.1680752
1.1681379
1.1681921
1.1682391
1.1682802
1.1683161
1.1683473
1.1683739
1.168396
1.1684131
1.1684248
1.1684302
1.1684283
1.1684176
1.1683969
1.1683649
1.1683194
1.1682547
1.1681659
1.1680627
1.1679546
1.1677868
1.1675014
1.1673486
1.167521
1.0527288
1.0875468
1.0678178
1.0826998
1.0765022
1.0836967
1.083487
1.0874974
1.0897957
1.0929276
1.0959639
1.0991577
1.1024356
1.1057979
1.1092274
1.1127085
1.1162231
1.1197517
1.1232735
1.1267668
1.1302092
1.1335779
1.1368511
1.1400076
1.1430283
1.1458962
1.1485973
1.151121
1.1534597
1.1556096
1.15757
1.1593434
1.1609347
1.1623511
1.1636018
1.164697
1.1656478
1.1664661
1.1671637
1.1677524
1.1682435
1.1686482
1.1689767
1.1692387
1.1694431
1.1695982
1.1697113
1.1697891
1.1698375
1.1698618
1.1698666
1.1698559
1.1698333
1.1698016
1.1697634
1.1697207
1.1696751
1.1696281
1.1695805
1.1695331
1.1694863
1.1694402
1.1693946
1.1693493
1.1693036
1.1692567
1.1692077
1.1691551
1.1690975
1.1690335
1.168962
1.16888
1.1687814
1.1686639
1.1685388
1.1684062
1.1682004
1.1678895
1.1677723
1.1679934
1.0552354
1.0903045
1.0706701
1.0859869
1.080167
1.0876329
1.088025
1.0922758
1.0951181
1.0986361
1.102128
1.1057564
1.1094652
1.1132434
1.1170683
1.1209175
1.1247662
1.1285885
1.1323573
1.1360452
1.1396249
1.1430708
1.1463589
1.1494684
1.1523822
1.1550872
1.1575747
1.1598406
1.1618845
1.1637101
1.1653244
1.1667367
1.1679588
1.1690035
1.169885
1.1706175
1.1712157
1.1716936
1.1720649
1.1723428
1.1725392
1.1726655
1.1727321
1.1727482
1.1727224
1.1726622
1.1725742
1.1724645
1.1723381
1.1721995
1.1720525
1.1719005
1.171746
1.1715915
1.1714387
1.1712892
1.1711439
1.1710038
1.1708693
1.1707407
1.170618
1.170501
1.1703893
1.1702822
1.1701789
1.1700785
1.1699796
1.1698808
1.1697804
1.1696771
1.1695696
1.1694542
1.1693252
1.1691839
1.1690414
1.1688847
1.1686416
1.1683205
1.1682509
1.1684993
1.0584638
1.0937265
1.0744574
1.0901435
1.0849089
1.0926111
1.0937412
1.0983135
1.1017797
1.1057748
1.109788
1.1139118
1.1180968
1.1223214
1.1265551
1.1307667
1.1349232
1.1389907
1.1429356
1.1467254
1.1503305
1.1537248
1.1568872
1.1598019
1.1624589
1.1648536
1.1669868
1.1688642
1.1704953
1.1718925
1.1730711
1.1740474
1.1748392
1.175464
1.1759397
1.1762833
1.1765112
1.1766386
1.1766797
1.1766477
1.1765543
1.1764103
1.1762251
1.1760072
1.1757641
1.1755022
1.1752272
1.174944
1.1746567
1.1743689
1.1740834
1.1738027
1.1735287
1.1732631
1.1730069
1.172761
1.172526
1.1723021
1.1720895
1.171888
1.1716972
1.1715166
1.1713456
1.1711831
1.1710283
1.1708799
1.1707365
1.1705964
1.1704581
1.1703202
1.1701809
1.1700358
1.1698808
1.1697209
1.1695655
1.1693854
1.1691075
1.1687923
1.1687813
1.1690295
1.0624961
1.0979015
1.0792668
1.0953313
1.0908754
1.0988827
1.1009056
1.105895
1.1100638
1.1146249
1.1192186
1.1238848
1.1285727
1.1332476
1.1378678
1.1423909
1.1467744
1.1509771
1.1549613
1.1586943
1.1621498
1.1653086
1.1681592
1.1706973
1.1729255
1.1748523
1.1764909
1.1778582
1.178974
1.1798594
1.1805365
1.1810271
1.181353
1.1815347
1.1815916
1.1815417
1.1814014
1.1811858
1.1809084
1.1805811
1.1802146
1.1798182
1.1794001
1.1789673
1.178526
1.1780813
1.1776376
1.1771986
1.1767675
1.1763466
1.175938
1.1755433
1.1751636
1.1747997
1.1744523
1.1741216
1.1738075
1.17351
1.1732287
1.1729631
1.1727126
1.1724762
1.1722531
1.1720422
1.1718423
1.171652
1.1714698
1.1712939
1.171123
1.1709556
1.170789
1.1706186
1.1704425
1.1702693
1.1701042
1.1699032
1.1695966
1.1692989
1.1693535
1.1695809
1.0675183
1.1032869
1.0853522
1.101879
1.0984194
1.1067827
1.1098467
1.1153551
1.1202938
1.1255007
1.1307204
1.1359509
1.1411297
1.146205
1.1511212
1.155825
1.1602679
1.1644079
1.1682121
1.1716574
1.1747307
1.1774287
1.1797569
1.1817282
1.1833613
1.184679
1.1857073
1.1864734
1.1870051
1.1873296
1.1874732
1.1874606
1.1873149
1.187057
1.186706
1.1862789
1.1857909
1.1852553
1.184684
1.1840869
1.1834731
1.1828499
1.1822239
1.1816004
1.1809841
1.1803787
1.1797873
1.1792125
1.1786561
1.1781198
1.1776046
1.1771112
1.1766401
1.1761916
1.1757655
1.1753616
1.1749795
1.1746187
1.1742783
1.1739577
1.1736558
1.1733715
1.1731038
1.1728514
1.172613
1.1723871
1.172172
1.1719661
1.171768
1.1715761
1.1713871
1.1711964
1.1710047
1.1708226
1.1706498
1.1704317
1.1701087
1.1698365
1.1699519
1.1701584
1.0738242
1.1101122
1.0929137
1.1101339
1.1079008
1.1166592
1.1209186
1.1270727
1.132846
1.1387601
1.1446146
1.1503674
1.1559384
1.1612587
1.1662637
1.1708993
1.1751236
1.1789086
1.1822401
1.185117
1.1875496
1.1895573
1.1911666
1.1924087
1.1933179
1.1939293
1.194278
1.1943978
1.1943206
1.1940761
1.1936913
1.1931907
1.1925959
1.1919263
1.1911987
1.1904278
1.1896264
1.1888052
1.1879738
1.1871399
1.1863103
1.1854905
1.184685
1.1838977
1.1831316
1.1823891
1.1816721
1.1809818
1.1803194
1.1796853
1.1790799
1.1785032
1.177955
1.177435
1.1769426
1.1764772
1.1760377
1.1756235
1.1752335
1.1748665
1.1745215
1.1741971
1.1738921
1.173605
1.1733346
1.1730791
1.172837
1.1726067
1.1723869
1.1721756
1.171969
1.1717634
1.1715619
1.1713749
1.1711948
1.1709636
1.1706406
1.1704045
1.170569
1.1707501
1.0816873
1.1186458
1.1024278
1.1203633
1.1197376
1.1289776
1.1345942
1.1415383
1.1481751
1.1547783
1.1611631
1.1672533
1.1729578
1.1782058
1.1829434
1.1871365
1.1907706
1.1938487
1.1963887
1.1984202
1.1999808
1.2011133
1.2018631
1.2022757
1.2023953
1.202264
1.2019205
1.2014001
1.2007345
1.1999516
1.1990763
1.1981299
1.1971311
1.1960956
1.195037
1.193967
1.192895
1.1918293
1.1907766
1.1897423
1.1887309
1.1877461
1.1867907
1.1858669
1.1849763
1.18412
1.1832989
1.1825131
1.1817629
1.1810481
1.1803682
1.1797228
1.179111
1.1785321
1.177985
1.1774686
1.176982
1.1765238
1.1760928
1.1756878
1.1753073
1.17495
1.1746145
1.1742993
1.1740029
1.1737237
1.1734601
1.1732108
1.1729744
1.1727485
1.1725291
1.1723142
1.1721086
1.1719204
1.171734
1.171493
1.1711829
1.170996
1.1711994
1.1713395
1.0913137
1.1291851
1.1146562
1.133174
1.1346206
1.1444601
1.1515158
1.1593063
1.1666887
1.1737619
1.1803503
1.1863685
1.1917435
1.1964345
1.2004278
1.2037339
1.206383
1.2084196
1.2098975
1.2108756
1.2114144
1.2115728
1.2114071
1.2109689
1.2103051
1.2094576
1.2084631
1.2073536
1.2061566
1.2048957
1.2035911
1.2022594
1.2009151
1.1995698
1.1982334
1.1969139
1.1956178
1.1943505
1.1931162
1.1919181
1.1907587
1.1896398
1.1885628
1.1875285
1.1865371
1.185589
1.1846837
1.1838209
1.1829999
1.1822199
1.1814799
1.1807789
1.1801157
1.1794891
1.1788978
1.1783404
1.1778156
1.1773219
1.1768579
1.1764222
1.1760133
1.1756297
1.1752699
1.1749324
1.1746156
1.174318
1.1740382
1.1737748
1.1735263
1.17329
1.1730626
1.1728434
1.1726385
1.1724521
1.1722617
1.1720167
1.1717285
1.171596
1.1718236
1.171913
1.1035076
1.1426349
1.1303919
1.1495436
1.153493
1.1639562
1.172283
1.180705
1.1884153
1.1954254
1.2016078
1.2069186
1.2113458
1.2149135
1.217671
1.2196854
1.2210343
1.2217991
1.2220606
1.2218957
1.2213751
1.2205627
1.2195149
1.2182808
1.2169024
1.2154159
1.2138516
1.2122348
1.2105869
1.2089253
1.2072646
1.2056164
1.2039905
1.2023944
1.2008343
1.199315
1.1978402
1.1964127
1.1950344
1.1937067
1.1924303
1.1912057
1.1900329
1.1889114
1.1878408
1.1868202
1.1858486
1.184925
1.1840481
1.1832166
1.1824291
1.1816841
1.1809802
1.1803159
1.1796895
1.1790995
1.1785444
1.1780227
1.1775326
1.1770728
1.1766415
1.1762373
1.1758586
1.175504
1.1751718
1.1748605
1.1745688
1.1742955
1.1740389
1.1737962
1.1735648
1.1733458
1.1731452
1.1729624
1.1727712
1.1725301
1.1722719
1.1721875
1.1724174
1.1724571
1.1197384
1.1601088
1.1509723
1.1704725
1.1771905
1.1880617
1.1970327
1.2053989
1.2126236
1.2187279
1.2236923
1.2275668
1.23043
1.2323842
1.2335413
1.2340149
1.2339137
1.2333379
1.2323769
1.231109
1.2296015
1.2279113
1.2260864
1.2241663
1.2221839
1.2201659
1.2181343
1.2161066
1.2140971
1.212117
1.2101754
1.2082791
1.2064336
1.2046428
1.2029096
1.2012362
1.1996239
1.1980731
1.1965843
1.1951572
1.1937912
1.1924854
1.191239
1.1900506
1.1889189
1.1878425
1.1868198
1.1858492
1.184929
1.1840575
1.183233
1.1824539
1.1817182
1.1810244
1.1803707
1.1797553
1.1791766
1.1786329
1.1781226
1.177644
1.1771955
1.1767756
1.1763827
1.1760152
1.1756717
1.1753507
1.1750509
1.1747712
1.1745096
1.1742637
1.1740318
1.1738163
1.1736218
1.1734438
1.1732548
1.1730253
1.1728029
1.1727566
1.1729712
1.1729773
1.1416569
1.1828337
1.1777096
1.1968115
1.2058156
1.2164069
1.2248794
1.2320343
1.2376797
1.2419276
1.2448921
1.2467321
1.2476107
1.2476882
1.2471122
1.2460136
1.2445052
1.2426826
1.2406252
1.2383981
1.2360546
1.2336373
1.2311807
1.2287121
1.2262532
1.2238209
1.2214285
1.2190862
1.2168017
1.2145809
1.2124279
1.2103457
1.208336
1.2064001
1.2045382
1.2027502
1.2010355
1.1993932
1.1978222
1.196321
1.1948881
1.1935217
1.1922202
1.1909816
1.189804
1.1886854
1.187624
1.1866177
1.1856645
1.1847625
1.1839098
1.1831043
1.1823443
1.1816277
1.1809528
1.1803178
1.1797209
1.1791604
1.1786345
1.1781416
1.17768
1.1772483
1.1768448
1.176468
1.1761165
1.1757889
1.175484
1.1752006
1.1749366
1.17469
1.1744602
1.1742501
1.1740626
1.1738896
1.1737056
1.1734936
1.1733098
1.1732962
1.1734855
1.1734481
1.1718568
1.2113999
1.2114916
1.2291912
1.238112
1.2470223
1.2535906
1.2583465
1.2614082
1.2630549
1.2635272
1.2630597
1.2618544
1.2600839
1.2578901
1.2553882
1.2526706
1.24981
1.2468637
1.2438764
1.2408825
1.2379086
1.2349748
1.2320964
1.2292847
1.2265481
1.2238924
1.2213217
1.2188385
1.2164441
1.2141392
1.2119235
1.2097961
1.2077561
1.2058018
1.2039315
1.2021433
1.200435
1.1988046
1.1972498
1.1957682
1.1943576
1.1930157
1.1917401
1.1905285
1.1893787
1.1882883
1.1872552
1.1862772
1.1853521
1.1844778
1.1836522
1.1828735
1.1821394
1.1814483
1.1807981
1.1801871
1.1796136
1.1790757
1.1785719
1.1781005
1.1776598
1.1772485
1.176865
1.176508
1.1761761
1.1758683
1.175583
1.1753185
1.1750731
1.1748471
1.1746432
1.1744622
1.1742944
1.1741185
1.1739285
1.1737817
1.1737896
1.1739479
1.173889
1.2128567
1.2474025
1.2503566
1.2643412
1.2718761
1.277451
1.2805606
1.2818898
1.2817532
1.2805196
1.2784648
1.2758177
1.272755
1.2694134
1.2658969
1.2622843
1.2586344
1.254991
1.2513863
1.2478441
1.2443813
1.2410099
1.237738
1.2345712
1.2315124
1.2285634
1.2257245
1.222995
1.2203737
1.2178588
1.2154481
1.2131393
1.2109298
1.2088167
1.2067973
1.2048688
1.2030282
1.2012728
1.1995995
1.1980057
1.1964886
1.1950454
1.1936734
1.1923701
1.1911328
1.1899591
1.1888466
1.1877927
1.1867952
1.1858519
1.1849606
1.184119
1.1833252
1.1825771
1.1818728
1.1812103
1.1805878
1.1800037
1.1794561
1.1789434
1.1784639
1.1780162
1.1775987
1.17721
1.1768488
1.1765139
1.1762041
1.175918
1.175654
1.175411
1.1751895
1.1749915
1.1748159
1.1746533
1.1744883
1.1743225
1.1742068
1.1742212
1.1743415
1.1742765
1.2620579
1.2882096
1.292465
1.3001423
1.3030236
1.303895
1.302834
1.3005224
1.2973157
1.2935229
1.289358
1.284979
1.2804978
1.2759944
1.2715247
1.2671278
1.2628301
1.2586497
1.2545978
1.2506814
1.246904
1.2432668
1.2397694
1.2364101
1.2331863
1.230095
1.2271328
1.2242959
1.2215807
1.2189832
1.2164995
1.2141257
1.2118581
1.2096929
1.2076265
1.2056553
1.2037759
1.2019848
1.2002789
1.1986549
1.1971097
1.1956404
1.1942442
1.1929181
1.1916594
1.1904656
1.189334
1.1882623
1.1872479
1.1862886
1.1853821
1.1845262
1.1837188
1.1829579
1.1822415
1.1815678
1.1809348
1.1803408
1.1797842
1.1792632
1.1787763
1.178322
1.1778988
1.1775053
1.1771402
1.1768026
1.176491
1.1762042
1.1759409
1.1757003
1.175483
1.1752897
1.1751186
1.1749619
1.17481
1.1746688
1.174576
1.1745808
1.1746535
1.1745971
1.3168248
1.3285273
1.329962
1.3300542
1.327402
1.3235064
1.3186808
1.313359
1.3077774
1.3021078
1.2964589
1.2909017
1.2854807
1.2802234
1.2751452
1.270254
1.2655524
1.2610396
1.2567126
1.252567
1.2485974
1.244798
1.2411628
1.2376858
1.2343608
1.231182
1.2281435
1.2252399
1.2224657
1.2198159
1.2172855
1.2148698
1.2125642
1.2103645
1.2082666
1.2062664
1.2043602
1.2025443
1.2008151
1.1991694
1.1976039
1.1961155
1.1947011
1.1933578
1.1920828
1.1908735
1.1897272
1.1886414
1.1876137
1.1866416
1.185723
1.1848556
1.1840373
1.183266
1.1825398
1.1818568
1.1812152
1.1806133
1.1800492
1.1795214
1.1790284
1.1785686
1.1781407
1.1777432
1.1773751
1.1770351
1.176722
1.1764348
1.1761723
1.1759339
1.1757199
1.1755302
1.1753626
1.1752121
1.1750741
1.1749543
1.1748761
1.174865
1.1748979
1.174858
1.366823
1.3610656
1.3566929
1.3507181
1.3435188
1.3360999
1.3286331
1.3213025
1.3141908
1.3073437
1.300781
1.2945078
1.2885207
1.2828116
1.27737
1.272184
1.2672414
1.2625303
1.2580388
1.2537559
1.249671
1.2457742
1.2420561
1.238508
1.2351219
1.23189
1.2288053
1.225861
1.223051
1.2203693
1.2178104
1.2153691
1.2130403
1.2108195
1.2087022
1.2066842
1.2047615
1.2029303
1.2011868
1.1995277
1.1979495
1.1964491
1.1950234
1.1936693
1.1923841
1.191165
1.1900093
1.1889146
1.1878783
1.186898
1.1859715
1.1850966
1.1842711
1.183493
1.1827603
1.1820711
1.1814236
1.1808162
1.180247
1.1797144
1.179217
1.1787533
1.1783219
1.1779214
1.1775507
1.1772087
1.1768942
1.1766062
1.1763437
1.1761064
1.1758939
1.1757057
1.17554
1.1753941
1.1752666
1.1751618
1.1750913
1.175065
1.1750687
1.1750463
1.3938466
1.382526
1.3717226
1.3622691
1.3529459
1.3439504
1.3353585
1.327187
1.3194365
1.312091
1.3051307
1.2985331
1.2922759
1.2863373
1.2806971
1.2753363
1.2702375
1.2653848
1.2607635
1.2563602
1.2521627
1.2481596
1.2443408
1.2406967
1.2372185
1.2338982
1.2307283
1.2277017
1.224812
1.2220531
1.2194194
1.2169055
1.2145063
1.2122172
1.2100336
1.2079513
1.2059662
1.2040746
1.2022726
1.2005568
1.1989238
1.1973705
1.1958936
1.1944903
1.1931576
1.1918927
1.1906931
1.1895562
1.1884794
1.1874605
1.186497
1.1855867
1.1847276
1.1839175
1.1831544
1.1824364
1.1817618
1.1811287
1.1805354
1.1799804
1.179462
1.1789788
1.1785294
1.1781125
1.1777268
1.1773713
1.1770447
1.1767461
1.1764747
1.1762299
1.1760112
1.1758178
1.1756484
1.1755014
1.1753769
1.1752776
1.1752084
1.1751726
1.1751606
1.1751496
1.1643008
1.1704244
1.1831985
1.1944993
1.198597
1.198435
1.1994112
1.1997969
1.1999441
1.1998691
1.1995621
1.1991237
1.1985518
1.1979111
1.1972295
1.1965187
1.1957769
1.1950086
1.1942183
1.1934096
1.1925855
1.1917491
1.1909029
1.1900492
1.1891901
1.1883278
1.187464
1.1866005
1.1857392
1.1848815
1.184029
1.1831833
1.1823458
1.1815179
1.1807011
1.1798965
1.1791056
1.1783297
1.1775699
1.1768277
1.1761041
1.1754005
1.174718
1.1740577
1.173421
1.1728088
1.1722222
1.1716622
1.1711297
1.1706256
1.1701507
1.1697055
1.1692906
1.1689063
1.1685528
1.16823
1.1679377
1.1676757
1.1674432
1.1672394
1.1670629
1.1669122
1.1667856
1.1666808
1.1665958
1.1665268
1.1664728
1.1664262
1.166395
1.1663514
1.1663438
1.1662605
1.1663049
1.1661014
1.1662927
1.1658098
1.1662935
1.1653586
1.1662548
1.1647284
1.1676357
1.1758013
1.1919119
1.1970082
1.1970816
1.1966045
1.1958827
1.1955157
1.1950913
1.1946244
1.1941242
1.1936588
1.1931919
1.192722
1.1922281
1.1917102
1.1911676
1.1906018
1.1900135
1.1894035
1.188773
1.1881235
1.1874567
1.1867745
1.1860787
1.1853713
1.1846542
1.1839295
1.1831992
1.1824652
1.1817293
1.1809936
1.1802599
1.1795299
1.1788055
1.1780884
1.1773803
1.1766828
1.1759976
1.1753264
1.1746706
1.1740318
1.1734114
1.172811
1.172232
1.1716755
1.1711429
1.1706354
1.170154
1.1696997
1.1692734
1.1688757
1.1685071
1.1681682
1.1678589
1.1675794
1.1673293
1.1671084
1.1669158
1.1667507
1.1666116
1.1664969
1.1664048
1.1663331
1.1662795
1.1662404
1.1662144
1.1661946
1.1661875
1.1661682
1.1661795
1.1661207
1.1661759
1.1659981
1.1661908
1.1657401
1.1662226
1.1653028
1.1662268
1.1646612
1.1583999
1.1740905
1.1861413
1.1907991
1.1906266
1.1901079
1.1895017
1.189301
1.1889963
1.1887997
1.1885374
1.1882873
1.1879875
1.1876724
1.1873266
1.1869598
1.1865681
1.1861534
1.1857161
1.1852568
1.1847767
1.1842769
1.1837587
1.1832232
1.1826719
1.1821063
1.1815279
1.1809381
1.1803388
1.1797316
1.1791181
1.1785003
1.1778799
1.1772588
1.1766387
1.1760216
1.1754093
1.1748036
1.1742063
1.1736192
1.1730442
1.1724829
1.1719371
1.1714085
1.1708985
1.1704088
1.1699408
1.1694957
1.1690749
1.1686794
1.1683101
1.1679679
1.1676533
1.1673667
1.1671084
1.1668782
1.1666762
1.1665016
1.1663539
1.166232
1.1661344
1.1660595
1.1660053
1.1659698
1.1659503
1.1659435
1.1659476
1.1659564
1.1659752
1.1659815
1.1660133
1.1659791
1.1660472
1.165894
1.1660901
1.1656687
1.1661508
1.1652473
1.1662007
1.1645933
1.1573644
1.1770961
1.18463
1.187972
1.1868135
1.18643
1.1857
1.1854476
1.1849982
1.1846972
1.1843192
1.1840084
1.183672
1.1833556
1.1830262
1.1826949
1.1823539
1.1820044
1.1816443
1.1812727
1.180889
1.1804924
1.1800829
1.1796602
1.1792247
1.1787767
1.1783169
1.1778459
1.1773648
1.1768746
1.1763767
1.1758724
1.1753631
1.1748503
1.1743358
1.1738213
1.1733083
1.1727989
1.1722947
1.1717976
1.1713095
1.1708322
1.1703675
1.1699172
1.169483
1.1690666
1.1686694
1.168293
1.1679386
1.1676075
1.1673007
1.167019
1.1667631
1.1665333
1.1663301
1.1661532
1.1660026
1.1658776
1.1657776
1.1657015
1.1656477
1.1656146
1.1656001
1.1656022
1.1656181
1.1656446
1.1656798
1.1657179
1.1657631
1.1657951
1.1658482
1.165838
1.1659203
1.1657899
1.1659924
1.1655969
1.166082
1.1651929
1.166175
1.1645299
1.1550965
1.1751254
1.1805189
1.183174
1.1815404
1.1814128
1.1806463
1.1805187
1.1800811
1.1798785
1.1795623
1.1793382
1.17907
1.1788312
1.1785765
1.1783258
1.1780677
1.1778051
1.1775349
1.1772563
1.1769686
1.176671
1.176363
1.1760443
1.1757148
1.1753745
1.1750236
1.1746625
1.1742917
1.1739119
1.1735239
1.1731287
1.1727275
1.1723214
1.1719118
1.1715001
1.171088
1.1706771
1.1702691
1.1698657
1.1694688
1.1690802
1.1687017
1.1683352
1.1679823
1.1676447
1.1673241
1.167022
1.1667397
1.1664784
1.1662394
1.1660233
1.1658309
1.1656627
1.1655188
1.1653993
1.165304
1.1652321
1.1651831
1.1651558
1.1651484
1.1651594
1.1651868
1.1652282
1.1652812
1.1653424
1.1654098
1.165478
1.1655505
1.1656088
1.1656839
1.1656976
1.165795
1.1656869
1.1658967
1.1655258
1.1660146
1.1651399
1.1661484
1.1644708
1.1497967
1.1720649
1.1758182
1.1782303
1.1762964
1.1765226
1.1757268
1.1757503
1.1753321
1.1752219
1.1749479
1.1747971
1.1745882
1.1744218
1.1742364
1.1740594
1.1738758
1.1736907
1.1735003
1.173304
1.1731012
1.1728911
1.1726732
1.172447
1.1722122
1.1719687
1.1717163
1.1714551
1.1711853
1.1709073
1.1706217
1.170329
1.17003
1.1697257
1.1694173
1.1691058
1.1687927
1.1684794
1.1681675
1.1678586
1.1675543
1.1672565
1.1669667
1.1666869
1.1664186
1.1661636
1.1659234
1.1656995
1.1654933
1.165306
1.1651387
1.1649922
1.1648672
1.1647641
1.1646832
1.1646244
1.1645874
1.1645715
1.1645761
1.1645998
1.164641
1.164698
1.1647688
1.1648512
1.1649423
1.1650392
1.1651396
1.1652386
1.1653388
1.1654238
1.165521
1.1655584
1.1656717
1.1655859
1.1658033
1.165456
1.165949
1.1650888
1.1661206
1.164416
1.1444655
1.1693983
1.1710104
1.1733519
1.171177
1.1716926
1.1708515
1.1710212
1.1706237
1.170619
1.170401
1.170335
1.1701933
1.1701024
1.1699864
1.1698813
1.1697688
1.1696565
1.1695406
1.1694207
1.1692962
1.1691665
1.169031
1.1688891
1.1687406
1.168585
1.1684222
1.1682521
1.1680748
1.1678904
1.1676992
1.1675018
1.1672986
1.1670905
1.1668783
1.166663
1.1664457
1.1662277
1.1660103
1.1657949
1.1655832
1.1653766
1.1651767
1.1649851
1.1648036
1.1646335
1.1644764
1.1643337
1.1642067
1.1640966
1.1640044
1.1639308
1.1638764
1.1638417
1.1638268
1.1638316
1.1638557
1.1638984
1.1639589
1.1640358
1.1641275
1.1642322
1.1643479