/*--------------------------------*- C++ -*----------------------------------*\
| =========                 |                                                 |
| \\      /  F ield         | OpenFOAM: The Open Source CFD Toolbox           |
|  \\    /   O peration     | Version:  2512                                  |
|   \\  /    A nd           | Website:  www.openfoam.com                      |
|    \\/     M anipulation  |                                                 |
\*---------------------------------------------------------------------------*/
FoamFile
{
    version     2.0;
    format      ascii;
    arch        "LSB;label=32;scalar=64";
    class       volScalarField;
    location    "0.147";
    object      T;
}
// * * * * * * * * * * * * * * * * * * * * * * * * * * * * * * * * * * * * * //

dimensions      [0 0 0 1 0 0 0];

internalField   nonuniform List<scalar> 
16000
(
292.62185
284.83381
289.23198
286.93869
288.60388
287.85138
288.5171
288.31781
288.62041
288.63199
288.79699
288.88408
289.00876
289.11937
289.23806
289.35696
289.47914
289.60398
289.73189
289.86297
289.99734
290.13509
290.27627
290.42091
290.569
290.72052
290.87539
291.03351
291.19475
291.35896
291.52592
291.69542
291.8672
292.04095
292.21637
292.39312
292.57081
292.74907
292.92748
293.10565
293.28313
293.45952
293.63438
293.80731
293.97791
294.1458
294.31064
294.4721
294.62988
294.78374
294.93345
295.07883
295.21974
295.35608
295.48778
295.61484
295.73725
295.85507
295.9684
296.07738
296.18221
296.28312
296.38035
296.47422
296.56504
296.65318
296.73897
296.82282
296.90518
296.98664
297.06795
297.14981
297.23263
297.31652
297.40183
297.48769
297.58803
297.64657
297.81406
297.82628
292.30901
284.41635
288.97228
286.55612
288.31497
287.49751
288.22193
287.99638
288.32225
288.33547
288.50739
288.60381
288.73423
288.85389
288.98012
289.10767
289.23843
289.37223
289.5093
289.6498
289.7938
289.9414
290.09261
290.24744
290.40585
290.56777
290.73311
290.90171
291.07341
291.248
291.42523
291.60482
291.78647
291.96984
292.15455
292.34021
292.52641
292.71271
292.89868
293.08386
293.26779
293.45005
293.63019
293.80779
293.98246
294.15384
294.32159
294.48541
294.64504
294.80025
294.95088
295.09679
295.23787
295.37408
295.5054
295.63185
295.7535
295.87042
295.98277
296.0907
296.19444
296.29425
296.3904
296.4832
296.57299
296.66015
296.74503
296.82804
296.90962
296.99037
297.07104
297.15237
297.23486
297.31855
297.40365
297.49186
297.58325
297.66723
297.79045
297.85437
291.98259
284.03678
288.67073
286.23409
288.02007
287.2057
287.93098
287.72378
288.0467
288.07689
288.25095
288.35962
288.49701
288.62668
288.76211
288.89957
289.04044
289.18465
289.33242
289.48387
289.63905
289.79803
289.96078
290.12727
290.29743
290.47115
290.64827
290.82859
291.0119
291.19792
291.38634
291.57683
291.76902
291.96249
292.15683
292.35156
292.54623
292.74035
292.93344
293.125
293.31457
293.50167
293.68588
293.86677
294.04397
294.21714
294.38598
294.55023
294.70968
294.86416
295.01356
295.15781
295.29687
295.43074
295.55949
295.68319
295.80195
295.91592
296.02528
296.13023
296.23104
296.32799
296.42137
296.51152
296.59879
296.68356
296.76621
296.84713
296.92677
297.00572
297.0847
297.16449
297.24559
297.32807
297.41218
297.49921
297.58864
297.67829
297.78959
297.86274
291.68971
283.68863
288.42819
285.9465
287.77154
286.94106
287.67906
287.4824
287.8085
287.8538
288.03205
288.15348
288.29899
288.43961
288.58526
288.73363
288.88556
289.04115
289.20051
289.36376
289.53092
289.70201
289.87698
290.05576
290.23821
290.42418
290.61346
290.8058
291.0009
291.19843
291.39801
291.59923
291.80164
292.00477
292.20812
292.41118
292.61341
292.81429
293.01329
293.2099
293.40362
293.594
293.7806
293.96304
294.14096
294.31406
294.48211
294.6449
294.80229
294.95419
295.10055
295.24137
295.37669
295.5066
295.63121
295.75066
295.86513
295.97482
296.07994
296.18074
296.27752
296.37059
296.46025
296.54686
296.63078
296.71239
296.79209
296.87027
296.94737
297.02395
297.10074
297.17851
297.2578
297.33873
297.42153
297.507
297.59501
297.68738
297.78656
297.87471
291.42059
283.37509
288.19414
285.68768
287.56953
286.7195
287.46121
287.28387
287.60897
287.67355
287.85603
287.99185
288.14695
288.2997
288.45697
288.61745
288.78169
288.94982
289.12193
289.2981
289.47833
289.66259
289.8508
290.04283
290.23849
290.43757
290.63976
290.84475
291.05216
291.26157
291.47251
291.68449
291.89698
292.10941
292.32122
292.53182
292.74065
292.94711
293.15067
293.35078
293.54697
293.73878
293.92582
294.10772
294.28422
294.45506
294.62009
294.77919
294.9323
295.07941
295.22057
295.35587
295.48543
295.60941
295.728
295.84142
295.94989
296.05367
296.15302
296.24824
296.33964
296.42754
296.51229
296.59424
296.67377
296.75125
296.82708
296.90166
296.97542
297.04889
297.12277
297.19783
297.27465
297.3534
297.43414
297.51737
297.60408
297.69589
297.78965
297.88188
291.18148
283.10643
287.9962
285.47372
287.36296
286.54506
287.29274
287.1326
287.45757
287.54162
287.72936
287.88029
288.04625
288.21189
288.38178
288.5553
288.73282
288.91448
289.10035
289.29048
289.48482
289.68329
289.88572
290.09194
290.30165
290.51455
290.73026
290.94835
291.16833
291.38969
291.61185
291.83422
292.05618
292.27708
292.49628
292.71314
292.92704
293.13737
293.34358
293.54514
293.74159
293.93252
294.11759
294.29653
294.46914
294.63526
294.79484
294.94785
295.09436
295.23445
295.36827
295.49601
295.61787
295.73411
295.84497
295.95075
296.05173
296.14821
296.24051
296.32893
296.41382
296.49552
296.57439
296.65078
296.72507
296.79763
296.86887
296.93917
297.00894
297.0787
297.1491
297.2209
297.29473
297.37078
297.44896
297.5296
297.61441
297.70457
297.79333
297.88921
290.97417
282.88231
287.83249
285.30719
287.20983
286.42232
287.16066
287.03439
287.35063
287.46142
287.6554
287.82175
287.99972
288.17911
288.36282
288.55063
288.74281
288.93946
289.14058
289.34615
289.55605
289.77011
289.98806
290.20963
290.4344
290.66197
290.89182
291.12341
291.35612
291.58932
291.82231
292.05441
292.28488
292.51301
292.73809
292.95944
293.1764
293.38839
293.59484
293.7953
293.98935
294.17666
294.35699
294.53017
294.69611
294.8548
295.00628
295.15066
295.28812
295.41888
295.54317
295.66129
295.77354
295.88024
295.98172
296.07832
296.17039
296.25826
296.34227
296.42277
296.50011
296.57465
296.64674
296.71673
296.785
296.85192
296.91787
296.98323
297.04841
297.11388
297.18024
297.24824
297.31854
297.39138
297.46645
297.54407
297.62644
297.71389
297.79864
297.89567
290.79871
282.70292
287.70216
285.17716
287.08538
286.32433
287.06878
286.95696
287.30062
287.43123
287.63311
287.81596
288.00812
288.20315
288.40281
288.60704
288.81598
289.02966
289.24801
289.47089
289.69809
289.92931
290.16419
290.40229
290.64309
290.88601
291.1304
291.37558
291.62079
291.86525
292.10817
292.34873
292.58613
292.81958
293.04834
293.27171
293.48905
293.6998
293.90348
294.09969
294.28815
294.46864
294.64104
294.80535
294.96161
295.10995
295.25057
295.38373
295.50971
295.62886
295.74154
295.84812
295.94899
296.04454
296.13517
296.22126
296.30319
296.38133
296.45605
296.5277
296.59664
296.66323
296.72781
296.79073
296.85235
296.91303
296.97314
297.03305
297.09312
297.15381
297.21566
297.27939
297.34572
297.41485
297.48638
297.56064
297.6401
297.72411
297.80465
297.9022
290.64743
282.56454
287.60704
285.08538
287.01992
286.31892
287.04612
286.97787
287.29163
287.45055
287.66461
287.86668
288.07633
288.28978
288.50812
288.73135
288.95951
289.19256
289.43032
289.67253
289.91886
290.16885
290.422
290.67768
290.93522
291.19387
291.4528
291.71115
291.96804
292.22254
292.47374
292.72074
292.96267
293.19872
293.42814
293.65026
293.86451
294.07042
294.26764
294.4559
294.63508
294.80513
294.96612
295.11821
295.26162
295.39665
295.52366
295.64305
295.75523
295.86067
295.95981
296.05312
296.14106
296.22408
296.30261
296.37708
296.44788
296.51541
296.58003
296.6421
296.70197
296.75999
296.8165
296.87183
296.92631
296.98029
297.03412
297.08814
297.14271
297.19821
297.25516
297.31423
297.37616
297.44116
297.50875
297.57933
297.65534
297.73516
297.81159
297.90896
290.5198
282.46898
287.55184
285.05461
287.0041
286.30707
287.03214
287.01472
287.34343
287.53055
287.76018
287.98344
288.2134
288.44788
288.68756
288.9324
289.18233
289.43716
289.69655
289.96012
290.22731
290.4975
290.76998
291.04392
291.31843
291.59257
291.86531
292.13564
292.4025
292.66485
292.92169
293.17207
293.41509
293.64997
293.87604
294.09271
294.29957
294.49629
294.68272
294.85881
295.02462
295.18034
295.32626
295.46271
295.59013
295.70899
295.8198
295.92308
296.0194
296.10928
296.19327
296.27191
296.34568
296.41509
296.48058
296.54261
296.60156
296.65784
296.71181
296.7638
296.81417
296.86323
296.9113
296.95869
297.0057
297.05267
297.09991
297.14774
297.1965
297.24653
297.29827
297.35237
297.40955
297.47004
297.53338
297.60007
297.67217
297.74707
297.8193
297.91608
290.41879
282.4237
287.53985
285.11578
287.034
286.41814
287.09446
287.15205
287.4602
287.67791
287.92727
288.17444
288.42802
288.68664
288.95072
289.22009
289.49452
289.77363
290.0569
290.3437
290.63325
290.92469
291.21704
291.50924
291.80016
292.08862
292.37342
292.65336
292.92726
293.19401
293.45255
293.70194
293.94138
294.17017
294.38779
294.59388
294.78823
294.97077
295.1416
295.30094
295.44911
295.58656
295.71378
295.83135
295.93987
296.03999
296.13234
296.21758
296.29634
296.36923
296.43686
296.49979
296.55854
296.61361
296.66548
296.71456
296.76126
296.80595
296.84897
296.89065
296.93129
296.97119
297.01064
297.04992
297.08931
297.1291
297.16958
297.21106
297.25382
297.29818
297.34452
297.39343
297.44559
297.50125
297.5601
297.62275
297.69051
297.75993
297.82793
297.92361
290.35087
282.43849
287.57666
285.20928
287.08864
286.5558
287.23512
287.32691
287.65198
287.90166
288.17544
288.44986
288.73069
289.01691
289.30871
289.60571
289.90746
290.21333
290.5225
290.83407
291.14695
291.45997
291.77184
292.08123
292.38674
292.68699
292.98059
293.2662
293.5426
293.80865
294.06338
294.30595
294.53574
294.75231
294.9554
295.14495
295.32107
295.48403
295.63424
295.77223
295.89861
296.01407
296.11935
296.21519
296.30239
296.38169
296.45386
296.51961
296.57965
296.63463
296.68515
296.7318
296.77509
296.81552
296.85352
296.88952
296.92387
296.95691
296.98896
297.02031
297.05124
297.08201
297.11286
297.14404
297.1758
297.2084
297.2421
297.27716
297.31386
297.35247
297.39332
297.43692
297.48387
297.53444
297.58867
297.64718
297.71024
297.77374
297.83763
297.93173
290.32212
282.52366
287.67441
285.39287
287.21515
286.78213
287.4367
287.59111
287.92798
288.21239
288.51544
288.82109
289.13326
289.45098
289.7741
290.10198
290.43383
290.76867
291.1053
291.44244
291.77863
292.11232
292.44192
292.76578
293.08227
293.38981
293.68692
293.97224
294.24458
294.50295
294.7466
294.97498
295.1878
295.385
295.56673
295.73334
295.88532
296.02334
296.14814
296.26057
296.3615
296.45187
296.53257
296.60454
296.66865
296.72576
296.77667
296.82215
296.8629
296.89957
296.93277
296.96304
296.99088
297.01674
297.04103
297.06412
297.08632
297.10795
297.12927
297.15054
297.17198
297.19381
297.21626
297.23952
297.26381
297.28935
297.31636
297.3451
297.37578
297.40866
297.44402
297.48229
297.52392
297.56926
297.61877
297.67311
297.73113
297.78832
297.84834
297.94067
290.33006
282.68422
287.8317
285.63453
287.43226
287.0832
287.72656
287.93857
288.29902
288.62185
288.95987
289.30164
289.64984
290.00333
290.36154
290.72343
291.08773
291.45298
291.81755
292.17966
292.53743
292.88893
293.23222
293.56541
293.88671
294.19446
294.48724
294.76385
295.02335
295.26513
295.48884
295.69443
295.88211
296.05232
296.20573
296.34312
296.46546
296.57375
296.66908
296.75255
296.82527
296.88832
296.94275
296.98955
297.02968
297.064
297.09332
297.1184
297.13992
297.15848
297.17464
297.18891
297.20173
297.21349
297.22455
297.23522
297.24578
297.25647
297.26752
297.27914
297.2915
297.3048
297.3192
297.33486
297.35197
297.37071
297.39126
297.41385
297.43866
297.46593
297.49591
297.52891
297.56523
297.60528
297.65004
297.70016
297.75296
297.80368
297.86014
297.95008
290.38139
282.93805
288.05187
285.96916
287.73367
287.47814
288.11256
288.38833
288.77962
289.14584
289.52498
289.90836
290.29761
290.69118
291.08791
291.48615
291.88406
292.2796
292.67055
293.05464
293.42953
293.79294
294.14269
294.47676
294.79341
295.09117
295.36895
295.62598
295.8619
296.07667
296.27062
296.44434
296.59865
296.7346
296.85334
296.95616
297.04436
297.1193
297.18228
297.23461
297.27753
297.31219
297.33969
297.36104
297.37718
297.38894
297.39709
297.40232
297.40524
297.40641
297.40631
297.40537
297.40396
297.40241
297.40101
297.40002
297.39966
297.40011
297.40154
297.40412
297.40799
297.41328
297.42012
297.42864
297.43898
297.45127
297.46569
297.48241
297.50159
297.52346
297.54824
297.57612
297.60723
297.64208
297.68209
297.72787
297.77537
297.8198
297.87311
297.95947
290.48038
283.30582
288.3203
286.4003
288.11224
287.97685
288.61162
288.95478
289.38743
289.80362
290.23084
290.66178
291.09695
291.5342
291.97158
292.40673
292.83706
293.25985
293.67229
294.07159
294.45506
294.82024
295.16496
295.48746
295.78638
296.06087
296.3105
296.53534
296.73583
296.91279
297.06731
297.2007
297.31446
297.41014
297.48939
297.55382
297.60503
297.64455
297.67385
297.69429
297.70713
297.71352
297.71453
297.71111
297.70412
297.69431
297.68236
297.66888
297.65438
297.63932
297.62411
297.60908
297.59454
297.58074
297.56789
297.5562
297.54581
297.53686
297.52948
297.52377
297.51984
297.51776
297.51763
297.51955
297.52361
297.52992
297.5386
297.5498
297.56368
297.58042
297.60024
297.62322
297.64935
297.6792
297.71446
297.75565
297.79784
297.83655
297.88697
297.96873
290.63071
283.79795
288.65545
286.94268
288.60214
288.59772
289.24448
289.66187
290.14674
290.62043
291.10248
291.58617
292.07073
292.5532
293.03064
293.4998
293.95725
294.39954
294.82336
295.22564
295.60368
295.9553
296.27889
296.57344
296.83854
297.07437
297.2816
297.46135
297.61508
297.74449
297.85146
297.93797
298.00603
298.05761
298.09464
298.11894
298.13223
298.13609
298.13197
298.12121
298.10499
298.08438
298.06033
298.03367
298.00513
297.97538
297.94495
297.91435
297.88397
297.85419
297.8253
297.79756
297.77118
297.74636
297.72323
297.70192
297.68253
297.66514
297.64984
297.63667
297.62569
297.61696
297.61052
297.60644
297.60478
297.60561
297.60903
297.61513
297.62407
297.63602
297.65116
297.66949
297.69095
297.71615
297.74675
297.78293
297.8197
297.85359
297.90127
297.97756
290.83703
284.37294
289.0876
287.61956
289.22503
289.36837
290.04163
290.54003
291.08768
291.62582
292.16801
292.70749
293.24192
293.76718
294.27915
294.77354
295.24615
295.69313
296.1111
296.49736
296.84994
297.16772
297.45032
297.69815
297.91221
298.09405
298.24563
298.36919
298.46713
298.54194
298.59611
298.63205
298.65207
298.65834
298.65287
298.63749
298.61388
298.58353
298.54778
298.5078
298.46464
298.4192
298.37228
298.32457
298.27664
298.229
298.18209
298.13626
298.09182
298.04902
298.00807
297.96913
297.93235
297.89783
297.86565
297.83588
297.80857
297.78375
297.76145
297.74169
297.72449
297.70985
297.6978
297.68836
297.68157
297.67747
297.67611
297.67758
297.68199
297.68952
297.70027
297.71423
297.73138
297.75239
297.77855
297.80937
297.84035
297.87028
297.91581
297.98562
291.11629
285.10064
289.69732
288.46877
290.01857
290.32286
291.03901
291.62465
292.24407
292.85201
293.45675
294.05076
294.62971
295.18804
295.72046
296.22203
296.68846
297.11638
297.50343
297.84834
298.15089
298.4118
298.63262
298.81553
298.96316
299.07847
299.16456
299.22457
299.26158
299.27855
299.27825
299.26325
299.2359
299.1983
299.15236
299.09975
299.04196
298.98027
298.91582
298.84958
298.78238
298.71495
298.64788
298.58171
298.51685
298.45367
298.39247
298.33348
298.27689
298.22287
298.17153
298.12296
298.07722
298.03435
297.99438
297.95733
297.92318
297.89194
297.86358
297.8381
297.81547
297.79567
297.7787
297.76455
297.75323
297.74475
297.73913
297.73644
297.73677
297.74025
297.74694
297.75682
297.76999
297.78723
297.80933
297.83486
297.85983
297.88592
297.92985
297.9942
291.50173
286.00611
290.46344
289.5285
291.02349
291.49807
292.27669
292.95622
293.65396
294.33294
294.99595
295.6341
296.24108
296.81039
297.33657
297.81537
298.24394
298.62094
298.94642
299.22167
299.44901
299.63152
299.77282
299.8768
299.94751
299.98891
300.00484
299.9989
299.97442
299.93442
299.88163
299.81846
299.74705
299.66926
299.58671
299.50081
299.41274
299.32355
299.2341
299.14513
299.05726
298.97099
298.88675
298.8049
298.7257
298.64938
298.57611
298.50602
298.43922
298.37575
298.31567
298.25898
298.20569
298.15579
298.10924
298.06602
298.02608
297.98937
297.95585
297.92548
297.8982
297.87397
297.85275
297.83452
297.81925
297.80693
297.79756
297.79118
297.78786
297.78769
297.79067
297.79678
297.8063
297.82006
297.83839
297.85912
297.87867
297.90099
297.94308
298.00325
292.03545
287.15546
291.39834
290.83598
292.29094
292.9441
293.80545
294.58296
295.35727
296.09673
296.79885
297.45392
298.05524
298.59733
299.07683
299.4924
299.8446
300.13565
300.36903
300.54915
300.68097
300.76972
300.82063
300.83876
300.82887
300.79536
300.74219
300.67292
300.59068
300.4982
300.39786
300.2917
300.18148
300.06867
299.95455
299.84017
299.72641
299.61402
299.50361
299.39566
299.29058
299.1887
299.09026
298.99546
298.90444
298.8173
298.73411
298.6549
298.57968
298.50844
298.44116
298.37778
298.31825
298.26252
298.21051
298.16216
298.11738
298.07611
298.03826
298.00376
297.97255
297.94455
297.91971
297.89798
297.8793
297.86366
297.85102
297.84141
297.83487
297.83143
297.83105
297.83377
297.83997
297.85044
297.86512
297.88149
297.89669
297.91615
297.95601
298.01042
292.75565
288.6076
292.61307
292.45945
293.89704
294.73032
295.68332
296.54852
297.37741
298.1436
298.84193
299.46464
300.00806
300.47099
300.85496
301.16365
301.40234
301.57737
301.69562
301.76413
301.78972
301.77886
301.73746
301.67085
301.58376
301.48032
301.3641
301.23815
301.10509
300.96711
300.82608
300.68354
300.54078
300.39887
300.25869
300.12095
299.98622
299.85498
299.72758
299.6043
299.48537
299.37092
299.26107
299.15588
299.05537
298.95954
298.86838
298.78183
298.69984
298.62233
298.54921
298.48041
298.41582
298.35534
298.29888
298.24632
298.19756
298.15251
298.11107
298.07314
298.03864
298.00747
297.97957
297.95486
297.93328
297.91478
297.89933
297.88691
297.87755
297.87121
297.86784
297.86753
297.87074
297.87811
297.8892
297.9015
297.91325
297.93073
297.96782
298.01514
293.66783
290.47687
294.19055
294.48843
295.92639
296.924
297.94729
298.85902
299.68807
300.41665
301.043
301.56589
301.98882
302.31775
302.56079
302.72716
302.82652
302.86838
302.86175
302.81487
302.73509
302.62888
302.5018
302.35861
302.20332
302.03932
301.86941
301.69591
301.52075
301.34549
301.17142
300.99957
300.83079
300.66572
300.5049
300.34872
300.1975
300.05146
299.91075
299.77548
299.64571
299.52144
299.40266
299.28933
299.18138
299.07873
298.9813
298.88896
298.80161
298.71913
298.64139
298.56826
298.49962
298.43533
298.37526
298.31929
298.26729
298.21915
298.17476
298.13399
298.09674
298.06293
298.03245
298.00523
297.98118
297.96025
297.94238
297.92755
297.91574
297.90687
297.90088
297.89791
297.89843
297.90288
297.91048
297.919
297.92783
297.94361
297.97731
298.01739
294.89214
292.88301
296.2426
296.99305
298.413
299.54768
300.57187
301.44486
302.18458
302.7867
303.25975
303.61313
303.85957
304.01268
304.0862
304.09322
304.04566
303.95408
303.82764
303.67409
303.49997
303.31067
303.11065
302.90354
302.6923
302.47931
302.26651
302.05542
301.84726
301.643
301.44338
301.24899
301.06025
300.87749
300.70094
300.53074
300.36698
300.20969
300.05887
299.91448
299.77645
299.64469
299.51908
299.39951
299.28585
299.17795
299.07566
298.97883
298.88731
298.80094
298.71955
298.64301
298.57114
298.5038
298.44085
298.38213
298.3275
298.27684
298.23002
298.1869
298.14739
298.11136
298.07872
298.04937
298.02323
298.00021
297.98028
297.96337
297.94943
297.93836
297.93012
297.92486
297.923
297.9247
297.92901
297.9341
297.94032
297.95434
297.98465
298.0183
296.46238
295.92799
298.7929
299.99036
301.46388
302.51971
303.42853
304.14027
304.68325
305.06866
305.31823
305.45217
305.49074
305.45217
305.35252
305.20539
305.02214
304.81206
304.58267
304.34001
304.08889
303.83313
303.57573
303.31905
303.06491
302.81475
302.56966
302.33046
302.09776
301.87202
301.65354
301.44254
301.23914
301.04338
300.85527
300.67476
300.50177
300.33619
300.1779
300.02675
299.88258
299.74522
299.6145
299.49023
299.37224
299.26034
299.15433
299.05405
298.95929
298.86988
298.78565
298.7064
298.63198
298.56221
298.49693
298.43599
298.37922
298.3265
298.27767
298.23262
298.1912
298.15331
298.11884
298.08769
298.05975
298.03495
298.01322
297.9945
297.97871
297.96575
297.95559
297.94839
297.94443
297.94364
297.94503
297.94723
297.95129
297.96322
297.98902
298.01557
298.42852
299.62182
302.25295
303.50969
304.73779
305.61625
306.27616
306.70924
306.96463
307.07183
307.06305
306.96437
306.79787
306.58122
306.32849
306.05067
305.75628
305.45188
305.14249
304.83194
304.52312
304.21822
303.91886
303.62626
303.34128
303.06454
302.79646
302.53731
302.28725
302.04633
301.81453
301.5918
301.37801
301.17304
300.97671
300.78885
300.60925
300.4377
300.274
300.11792
299.96925
299.82775
299.69322
299.56544
299.44417
299.32921
299.22035
299.11738
299.0201
298.9283
298.84179
298.76039
298.6839
298.61215
298.54496
298.48218
298.42364
298.36919
298.31868
298.27197
298.22894
298.18946
298.15341
298.12069
298.09119
298.06483
298.04153
298.02121
298.00378
297.98916
297.97733
297.96844
297.96262
297.95966
297.95867
297.95877
297.96126
297.97097
297.99169
298.01206
301.11301
304.02127
305.98679
307.14169
308.04821
308.55966
308.83386
308.90556
308.83327
308.65501
308.40233
308.09836
307.76048
307.40147
307.03068
306.65496
306.27926
305.90716
305.54122
305.18328
304.83457
304.49596
304.168
303.85101
303.54514
303.25043
302.96682
302.69419
302.43236
302.18111
301.94022
301.70944
301.48849
301.27711
301.07502
300.88194
300.69761
300.52175
300.35409
300.19437
300.04232
299.89769
299.76023
299.62969
299.50584
299.38845
299.27727
299.1721
299.07272
298.97892
298.89049
298.80724
298.72897
298.6555
298.58665
298.52226
298.46214
298.40616
298.35415
298.30597
298.26149
298.22058
298.18312
298.14899
298.11809
298.09032
298.06559
298.04382
298.02491
298.00879
297.99546
297.985
297.97745
297.97256
297.96966
297.96835
297.96984
297.97743
297.9929
298.00761
304.84944
308.6838
309.91401
310.59508
310.94287
310.97503
310.82312
310.5417
310.17958
309.76719
309.32615
308.87093
308.41143
307.95431
307.50405
307.06362
306.63494
306.21923
305.81718
305.42914
305.05522
304.69536
304.34937
304.01699
303.69792
303.3918
303.09827
302.81696
302.54749
302.28948
302.04255
301.80634
301.58049
301.36466
301.15849
300.96167
300.77387
300.59478
300.4241
300.26154
300.10681
299.95964
299.81976
299.68692
299.56087
299.44135
299.32814
299.22101
299.11973
299.0241
298.93389
298.84892
298.76898
298.69389
298.62347
298.55753
298.49593
298.43848
298.38504
298.33547
298.28962
298.24736
298.20856
298.17312
298.14091
298.11184
298.08581
298.06272
298.04248
298.02503
298.01034
297.99844
297.9893
297.98269
297.9782
297.97572
297.97617
297.98142
297.99212
298.0029
310.41883
312.84
313.27542
313.23669
313.01357
312.60308
312.10692
311.56329
311.00033
310.43398
309.87407
309.32645
308.79453
308.2802
307.78438
307.3074
306.84917
306.40939
305.98761
305.58326
305.19578
304.82454
304.46895
304.12841
303.80233
303.49016
303.19135
302.9054
302.6318
302.37009
302.11983
301.88057
301.65192
301.43349
301.2249
301.02578
300.83581
300.65465
300.48198
300.3175
300.16092
300.01195
299.87032
299.73577
299.60804
299.48688
299.37206
299.26335
299.16052
299.06336
298.97166
298.88521
298.80382
298.72731
298.65549
298.58818
298.52522
298.46644
298.4117
298.36084
298.31372
298.27021
298.23018
298.19352
298.16011
298.12984
298.10262
298.07834
298.05692
298.0383
298.02243
298.00929
297.9988
297.99078
297.98501
297.98155
297.98093
297.98405
297.99097
297.99903
314.02499
315.01849
315.17005
314.66691
314.04528
313.37065
312.68348
312.00434
311.34282
310.70414
310.09042
309.50237
308.93981
308.40209
307.88832
307.3975
306.92858
306.48052
306.05232
305.64301
305.25168
304.87747
304.51959
304.17729
303.84986
303.53664
303.23702
302.95043
302.67632
302.41419
302.16355
301.92395
301.69498
301.47621
301.26726
301.06777
300.8774
300.69579
300.52264
300.35763
300.20048
300.0509
299.90861
299.77336
299.64488
299.52294
299.4073
299.29773
299.19401
299.09592
299.00326
298.91584
298.83344
298.7559
298.68303
298.61465
298.55061
298.49073
298.43488
298.3829
298.33465
298.29
298.24882
298.211
298.17643
298.14499
298.11661
298.09117
298.0686
298.04884
298.03183
298.01754
298.00587
297.99669
297.98991
297.98561
297.98409
297.98569
297.99029
297.9968
310.56193
308.83035
305.57344
302.76046
301.76949
301.78608
301.44644
301.22874
301.05361
300.90271
300.77246
300.64578
300.53269
300.42886
300.32829
300.22799
300.12913
300.03149
299.93477
299.8388
299.74348
299.64874
299.55456
299.46095
299.36791
299.27549
299.18373
299.0927
299.00246
298.91307
298.82463
298.7372
298.65088
298.56576
298.48193
298.39949
298.31855
298.2392
298.16157
298.08576
298.01189
297.94008
297.87045
297.80313
297.73826
297.67595
297.61635
297.55957
297.50577
297.45506
297.40757
297.36344
297.32278
297.28572
297.25235
297.22279
297.19712
297.17542
297.15772
297.14409
297.13459
297.12928
297.1282
297.1314
297.13902
297.15111
297.1679
297.18913
297.21554
297.24561
297.28312
297.32132
297.37459
297.41717
297.49353
297.52746
297.64233
297.66151
297.81353
297.84789
306.744
304.59544
300.54515
299.32575
299.31529
299.43135
299.59112
299.64337
299.68233
299.71579
299.73872
299.73842
299.7223
299.69331
299.65678
299.61425
299.56636
299.51358
299.45655
299.39588
299.33206
299.26553
299.19669
299.1259
299.05347
298.9797
298.90488
298.82925
298.75307
298.67656
298.59993
298.52339
298.44714
298.37136
298.29623
298.22194
298.14864
298.07651
298.00571
297.93639
297.86873
297.80287
297.73898
297.67721
297.61772
297.56065
297.50616
297.4544
297.40551
297.35963
297.31691
297.27747
297.24143
297.20892
297.18004
297.1549
297.13357
297.11613
297.1026
297.09304
297.0875
297.08603
297.08866
297.09544
297.10648
297.12184
297.1417
297.16587
297.19494
297.22768
297.26731
297.30812
297.36267
297.40791
297.48442
297.52161
297.63602
297.6568
297.81239
297.84123
307.27723
303.15535
300.07382
298.90595
298.93589
299.05161
299.17621
299.19818
299.23186
299.23137
299.2324
299.22186
299.21011
299.19224
299.17017
299.14295
299.11136
299.07557
299.03591
298.99268
298.94615
298.89661
298.84432
298.78955
298.73258
298.67367
298.61308
298.55105
298.48783
298.42366
298.35878
298.2934
298.22774
298.16203
298.09646
298.03125
297.9666
297.9027
297.83974
297.77792
297.71743
297.65845
297.60117
297.54577
297.49243
297.44131
297.39259
297.34644
297.303
297.26245
297.22492
297.19056
297.15949
297.13183
297.1077
297.0872
297.0704
297.05737
297.04813
297.04272
297.0412
297.04361
297.04997
297.06031
297.07475
297.09334
297.11624
297.14326
297.17497
297.21024
297.25204
297.29519
297.3513
297.3986
297.47602
297.51555
297.63064
297.65221
297.81083
297.83602
306.19477
301.02581
299.06552
298.17838
298.42567
298.48377
298.60927
298.61955
298.66789
298.68107
298.70277
298.7071
298.70894
298.70251
298.69215
298.67697
298.65787
298.63483
298.6082
298.57824
298.54517
298.50921
298.47058
298.42948
298.38611
298.34066
298.29335
298.24436
298.19389
298.14216
298.08935
298.03568
297.98135
297.92657
297.87155
297.81648
297.76159
297.70707
297.65314
297.6
297.54786
297.49693
297.4474
297.39947
297.35335
297.30922
297.26727
297.22767
297.19061
297.15624
297.12473
297.09622
297.07084
297.04873
297.02999
297.01472
297.00301
296.99491
296.99043
296.98961
296.99251
296.99916
297.00957
297.02378
297.04187
297.06392
297.09005
297.12011
297.1546
297.19251
297.23663
297.28217
297.33997
297.38928
297.46775
297.50935
297.62525
297.6477
297.80947
297.83073
305.16784
299.91816
298.494
297.76757
298.12026
298.10486
298.2374
298.21981
298.26755
298.26457
298.27955
298.27612
298.2758
298.26893
298.26058
298.24884
298.23465
298.21781
298.19852
298.17686
298.15292
298.12677
298.09848
298.06816
298.03588
298.00177
297.96592
297.92847
297.88954
297.84929
297.80786
297.76542
297.72212
297.67816
297.63371
297.58896
297.54411
297.49936
297.4549
297.41095
297.36772
297.32541
297.28425
297.24443
297.20615
297.16963
297.13506
297.10263
297.07251
297.04489
297.01993
296.99777
296.97857
296.96245
296.94951
296.93988
296.93361
296.93075
296.93133
296.93537
296.94292
296.95401
296.96864
296.98686
297.00874
297.03435
297.0638
297.09696
297.13428
297.17487
297.22136
297.26923
297.32885
297.38001
297.45977
297.5032
297.62016
297.64332
297.80795
297.82578
304.65667
298.83898
297.85695
297.21812
297.66921
297.58986
297.75044
297.71939
297.78281
297.78058
297.80589
297.80812
297.81573
297.81577
297.81494
297.81084
297.80465
297.7961
297.7854
297.77264
297.75789
297.74122
297.72269
297.70236
297.68031
297.6566
297.63132
297.60456
297.5764
297.54695
297.51632
297.48463
297.45203
297.41865
297.38465
297.3502
297.31546
297.28063
297.24589
297.21144
297.17749
297.14424
297.1119
297.08067
297.05076
297.02238
296.99573
296.97099
296.94836
296.92802
296.91012
296.89482
296.88227
296.87259
296.8659
296.86229
296.86184
296.86458
296.87053
296.87971
296.89218
296.90794
296.92701
296.94942
296.97523
297.00452
297.0374
297.07375
297.11398
297.15729
297.20619
297.2564
297.3179
297.37093
297.45199
297.49717
297.61523
297.6391
297.80634
297.82112
304.18056
297.68893
297.2732
296.67887
297.21328
297.08587
297.27914
297.23631
297.3163
297.31374
297.34753
297.35392
297.36822
297.37441
297.38037
297.38311
297.38401
297.3828
297.37972
297.37483
297.36822
297.35996
297.35011
297.33872
297.32584
297.31151
297.29581
297.27877
297.26048
297.241
297.22041
297.19881
297.17631
297.15302
297.12908
297.10461
297.07978
297.05475
297.0297
297.00479
296.98023
296.9562
296.9329
296.91054
296.88931
296.86941
296.85104
296.83439
296.81963
296.80695
296.79651
296.78846
296.78293
296.78006
296.77996
296.78271
296.78838
296.79701
296.80859
296.82315
296.84074
296.86136