/*--------------------------------*- C++ -*----------------------------------*\
| =========                 |                                                 |
| \\      /  F ield         | OpenFOAM: The Open Source CFD Toolbox           |
|  \\    /   O peration     | Version:  2512                                  |
|   \\  /    A nd           | Website:  www.openfoam.com                      |
|    \\/     M anipulation  |                                                 |
\*---------------------------------------------------------------------------*/
FoamFile
{
    version     2.0;
    format      ascii;
    arch        "LSB;label=32;scalar=64";
    class       volVectorField;
    location    "0.147";
    object      U;
}
// * * * * * * * * * * * * * * * * * * * * * * * * * * * * * * * * * * * * * //

dimensions      [0 1 -1 0 0 0 0];

internalField   nonuniform List<vector> 
16000
(
(214.78651 -3.11932e-17 -8.3386191)
(251.92137 0 5.3503548)
(238.27041 0 -7.5404423)
(246.03397 4.9553748e-17 3.7603726)
(241.43706 -4.9005114e-17 -5.9311223)
(243.69374 0 1.7342924)
(241.94114 0 -4.3137118)
(242.48019 8.3846705e-17 -0.041236887)
(241.67092 -7.968811e-17 -3.1562646)
(241.57266 0 -1.2758083)
(241.07912 7.2007308e-17 -2.5681295)
(240.7498 -2.0514801e-16 -1.9908841)
(240.32196 1.2985294e-16 -2.4289844)
(239.9073 -1.2352241e-16 -2.3668652)
(239.46299 1.1720139e-16 -2.5283374)
(239.00351 -3.4767578e-18 -2.6006513)
(238.52425 -3.3028292e-18 -2.7045386)
(238.02624 -9.7460541e-17 -2.7976937)
(237.50905 1.9094762e-16 -2.8926455)
(236.97261 -9.0597722e-17 -2.9854124)
(236.41685 1.723305e-16 -3.0763802)
(235.84174 -1.6335483e-16 -3.1648486)
(235.24733 0 -3.250315)
(234.63376 1.5205854e-16 -3.3321923)
(234.00125 -4.1147671e-18 -3.4098835)
(233.35013 -2.6538844e-16 -3.4827583)
(232.68082 1.2578427e-16 -3.5501783)
(231.99388 0 -3.6114907)
(231.28998 0 -3.6660442)
(230.56995 2.1844573e-16 -3.7131942)
(229.83471 -2.0353084e-16 -3.7523163)
(229.08536 0 -3.7828144)
(228.32312 0 -3.8041322)
(227.54933 0 -3.8157677)
(226.76549 5.1349763e-18 -3.8172832)
(225.9732 1.5583175e-16 -3.8083175)
(225.17417 -1.4264907e-16 -3.788598)
(224.37023 -1.3971557e-16 -3.7579491)
(223.56327 1.2370794e-16 -3.7163023)
(222.75524 0 -3.6637039)
(221.94813 -1.184013e-16 -3.6003171)
(221.14397 1.1175663e-16 -3.5264265)
(220.34474 -2.1180258e-16 -3.4424361)
(219.55241 1.9982898e-16 -3.348866)
(218.76891 -1.951655e-16 -3.246346)
(217.99606 3.5731697e-16 -3.135605)
(217.23558 5.5999301e-18 -3.0174598)
(216.48909 2.984069e-19 -2.8928003)
(215.75805 -1.5040152e-16 -2.7625727)
(215.04378 1.4224875e-16 -2.6277619)
(214.34742 -1.2564947e-16 -2.4893741)
(213.66997 0 -2.3484169)
(213.01221 7.4681777e-18 -2.2058832)
(212.37478 0 -2.062733)
(211.7581 6.645873e-18 -1.919879)
(211.16243 2.0693931e-16 -1.7781738)
(210.58783 -3.7823778e-16 -1.638398)
(210.03416 1.0921135e-17 -1.5012505)
(209.50113 1.6808051e-16 -1.3673387)
(208.98823 -1.487779e-16 -1.237187)
(208.49474 1.401411e-16 -1.111213)
(208.01989 -8.8185931e-18 -0.98977408)
(207.56275 0 -0.87313436)
(207.1222 0 -0.7614636)
(206.69681 -1.1113603e-16 -0.65486435)
(206.28482 1.1181617e-16 -0.5533715)
(205.88416 -9.90825e-17 -0.45696677)
(205.49259 1.9340768e-16 -0.36558513)
(205.10789 -1.8875407e-16 -0.27911582)
(204.72796 8.3679547e-17 -0.19740008)
(204.35059 5.2843113e-18 -0.12024402)
(203.97304 0 -0.047490981)
(203.59218 4.7512403e-18 0.020970119)
(203.20537 -4.5132147e-18 0.085413482)
(202.81165 0 0.14607137)
(202.41302 -3.3753037e-17 0.19984434)
(201.98109 6.2473406e-17 0.24610116)
(201.66255 -3.1746436e-17 0.3490791)
(200.96241 0 0.17064736)
(200.98989 0 0.80586817)
(216.07633 0 -11.149384)
(253.53682 -3.7086334e-18 3.3079723)
(239.25615 -1.1964139e-16 -10.463898)
(247.47185 1.1009779e-16 1.6760213)
(242.5239 0 -8.7912003)
(245.01098 1.0139526e-16 -0.42293921)
(243.0556 -1.8740384e-16 -7.0577068)
(243.68224 -1.0214974e-19 -2.3219772)
(242.78256 8.4454313e-17 -5.7460993)
(242.68492 0 -3.67438)
(242.15068 -1.5255932e-16 -5.0443875)
(241.79235 1.4923099e-16 -4.434932)
(241.33242 1.4194074e-16 -4.8598407)
(240.88324 -2.6129773e-16 -4.7987109)
(240.40426 1.2012265e-16 -4.9404803)
(239.9082 1.1043753e-17 -5.0058112)
(239.39135 1.1548407e-16 -5.0945016)
(238.85443 -1.0285229e-16 -5.1743122)
(238.29716 0 -5.2535969)
(237.71953 0 -5.329651)
(237.12153 5.6757736e-18 -5.4023527)
(236.50324 -1.7805105e-16 -5.4709906)
(235.86483 3.3761807e-16 -5.5349268)
(235.20655 -3.154791e-16 -5.5934739)
(234.52878 1.4259301e-16 -5.6459288)
(233.83201 0 -5.6915726)
(233.11684 1.2436761e-16 -5.7296765)
(232.38403 -1.3335862e-16 -5.7595159)
(231.63445 0 -5.7803777)
(230.86915 3.5245245e-18 -5.7915718)
(230.08929 -1.3367934e-17 -5.7924422)
(229.29622 0 -5.7823831)
(228.49139 0 -5.7608465)
(227.67641 -1.7057448e-16 -5.7273632)
(226.85302 3.3870179e-16 -5.6815514)
(226.02307 -1.626409e-16 -5.6231311)
(225.18851 -1.5904813e-16 -5.5519378)
(224.35137 1.4556904e-16 -5.4679293)
(223.51374 -1.1212237e-16 -5.3711969)
(222.67774 -2.8723171e-19 -5.2619703)
(221.84549 -2.6868068e-19 -5.1406192)
(221.01911 2.3272612e-16 -5.0076538)
(220.20066 -1.0980333e-16 -4.8637195)
(219.39212 0 -4.7095896)
(218.59538 2.0232501e-16 -4.5461547)
(217.8122 1.1936078e-17 -4.3744082)
(217.04421 -5.1150528e-18 -4.1954288)
(216.29288 -1.6449976e-16 -4.0103624)
(215.55949 0 -3.8204011)
(214.84516 -1.4652631e-16 -3.6267621)
(214.15082 -8.8578482e-18 -3.4306666)
(213.47722 2.6006541e-16 -3.2333184)
(212.82491 -1.3006571e-16 -3.035885)
(212.19427 0 -2.8394795)
(211.58548 -2.0379845e-17 -2.6451447)
(210.99857 -2.1117924e-16 -2.4538411)
(210.43336 3.6122687e-16 -2.2664352)
(209.88953 -2.1524847e-16 -2.0836913)
(209.36658 0 -1.9062638)
(208.86384 -1.7078015e-16 -1.7347055)
(208.38047 1.7946537e-16 -1.5694457)
(207.91552 2.6683635e-17 -1.4108285)
(207.46799 0 -1.2591062)
(207.03669 -1.4187928e-16 -1.1144164)
(206.62016 7.3201736e-18 -0.97682091)
(206.21663 1.117013e-16 -0.84630757)
(205.82402 -1.9735623e-17 -0.72280506)
(205.44 9.2996248e-17 -0.60619128)
(205.06229 -1.0511882e-16 -0.49629326)
(204.68871 5.5083704e-18 -0.39288564)
(204.31704 -5.1975615e-18 -0.29571107)
(203.94459 0 -0.20455706)
(203.5682 -4.6376894e-18 -0.11922715)
(203.18521 4.3866377e-18 -0.039311154)
(202.79412 8.3081659e-18 0.034757934)
(202.39278 9.8446263e-19 0.10000525)
(201.98563 0 0.16833163)
(201.59647 3.0228692e-17 0.24483053)
(201.04197 -5.7569644e-17 0.14186259)
(200.88899 2.5859711e-17 0.69443971)
(217.22906 0 -14.032781)
(254.99749 -1.2198398e-16 1.0657499)
(240.1865 2.4967259e-16 -13.47165)
(248.70451 -2.2257051e-16 -0.57533977)
(243.50222 1.1013278e-16 -11.725372)
(246.12449 -3.2580076e-18 -2.7712026)
(244.04199 9.9250252e-17 -9.8497925)
(244.69364 -9.3965711e-17 -4.799479)
(243.737 -5.5801817e-18 -8.4017868)
(243.61589 -5.2978988e-18 -6.2388607)
(243.04597 -1.0065391e-17 -7.6208225)
(242.65134 1.3886539e-16 -7.016833)
(242.15561 -1.4076601e-16 -7.4111552)
(241.6676 1.3815743e-16 -7.3571714)
(241.14918 -1.1868721e-16 -7.477948)
(240.61203 -1.5556043e-17 -7.5354851)
(240.05283 0 -7.6088228)
(239.47229 -1.1937157e-20 -7.6740156)
(238.87023 -2.262659e-16 -7.7364321)
(238.24673 -3.6779583e-19 -7.794044)
(237.6019 1.7342737e-16 -7.8464181)
(236.93594 1.7035709e-17 -7.8927626)
(236.24917 -2.1547719e-17 -7.9323229)
(235.542 0 -7.964309)
(234.81499 6.6943975e-21 -7.9879221)
(234.06882 -1.6541215e-16 -8.0023563)
(233.30432 1.4777524e-16 -8.0068103)
(232.52247 8.2475109e-18 -8.0004949)
(231.72442 0 -7.9826522)
(230.91147 -7.3990901e-18 -7.9525623)
(230.08508 -2.2086691e-21 -7.9095643)
(229.24688 -1.9917775e-16 -7.8530686)
(228.39862 2.0059497e-16 -7.7825734)
(227.54223 1.188775e-17 -7.6976843)
(226.67973 -1.799464e-16 -7.5981236)
(225.81324 1.4850775e-16 -7.4837492)
(224.94498 -1.8096036e-16 -7.3545639)
(224.07722 1.5167503e-16 -7.210726)
(223.21224 -1.4361359e-16 -7.0525524)
(222.35231 1.3534906e-16 -6.8805251)
(221.4997 1.600436e-17 -6.6952878)
(220.65656 0 -6.4976385)
(219.82497 1.9963627e-16 -6.288523)
(219.0069 -2.4164031e-16 -6.069019)
(218.20413 0 -5.8403198)
(217.41831 1.7934726e-16 -5.6037155)
(216.65087 -1.5738063e-16 -5.3605684)
(215.90307 1.6980922e-16 -5.1122913)
(215.17595 -1.7961316e-16 -4.8603214)
(214.47035 0 -4.6060969)
(213.78691 1.771164e-16 -4.351034)
(213.12607 -1.3310942e-16 -4.096503)
(212.48807 0 -3.8438101)
(211.87298 0 -3.5941799)
(211.28071 1.247224e-16 -3.3487389)
(210.71098 -2.0829548e-16 -3.1085075)
(210.16336 1.2227429e-16 -2.8743887)
(209.63729 1.840203e-16 -2.6471639)
(209.13205 1.9895486e-19 -2.4274865)
(208.6468 1.7705231e-19 -2.2158909)
(208.18052 -3.2391342e-16 -2.0127818)
(207.73213 8.9393372e-17 -1.8184525)
(207.30052 0 -1.6331103)
(206.88441 1.4208106e-16 -1.4568362)
(206.48232 -1.6298161e-16 -1.2896267)
(206.09247 1.1139926e-16 -1.1314024)
(205.71276 1.3149074e-17 -0.98202141)
(205.34086 -8.5960184e-17 -0.8412927)
(204.97442 1.1543559e-17 -0.70897702)
(204.61123 2.1709031e-17 -0.58478723)
(204.24906 -1.0209079e-16 -0.46840669)
(203.88532 9.6016285e-17 -0.35954868)
(203.51692 -7.2345399e-17 -0.25792734)
(203.14103 1.3627631e-16 -0.16322286)
(202.75565 -5.6195446e-17 -0.076217801)
(202.36025 -6.0632492e-17 0.0023602465)
(201.96203 5.0096046e-17 0.08367047)
(201.54819 0 0.14768941)
(201.06213 3.2059305e-18 0.1122229)
(200.81951 -1.2158978e-17 0.57759414)
(218.21742 0 -16.985278)
(256.30377 0 -1.3080007)
(240.91769 0 -16.610864)
(249.73829 1.0636258e-16 -2.9348132)
(244.29032 -1.2373909e-16 -14.790981)
(247.06618 -2.2016967e-16 -5.238856)
(244.84219 2.0957589e-16 -12.761464)
(245.52165 -1.2409087e-17 -7.4052278)
(244.5006 5.9105467e-18 -11.168915)
(244.3522 -1.7379941e-16 -8.9355177)
(243.74223 1.7016654e-16 -10.309144)
(243.30596 1.0112899e-17 -9.7245751)
(242.76978 -1.5357572e-16 -10.080103)
(242.23785 1.3642751e-16 -10.034714)
(241.67515 -1.3192182e-20 -10.133008)
(241.09205 -8.1830768e-18 -10.180611)
(240.48578 0 -10.236807)
(239.85703 -7.386351e-18 -10.284776)
(239.20572 -2.1026525e-16 -10.32755)
(238.53205 2.123099e-16 -10.363562)
(237.83624 1.2602191e-17 -10.392153)
(237.11866 -1.1948008e-17 -10.412448)
(236.37978 2.1531198e-16 -10.423588)
(235.62021 -1.7150562e-16 -10.424687)
(234.84073 1.0170507e-17 -10.414849)
(234.04225 1.9285528e-16 -10.393187)
(233.22589 -1.2757193e-16 -10.358823)
(232.39293 0 -10.310919)
(231.54482 1.4741099e-16 -10.248681)
(230.68319 -1.237318e-16 -10.171384)
(229.80987 2.493687e-16 -10.078388)
(228.92681 -1.3316417e-17 -9.9691618)
(228.03615 -2.0946249e-16 -9.8432943)
(227.14013 1.7373546e-16 -9.7005188)
(226.2411 -1.8715382e-16 -9.540724)
(225.34148 -3.1507385e-20 -9.3639704)
(224.44376 2.0922578e-16 -9.1704988)
(223.55042 -3.1575526e-16 -8.9607353)
(222.66391 9.2930992e-17 -8.7352947)
(221.78663 3.5186195e-17 -8.4949758)
(220.92089 -4.9753589e-17 -8.2407564)
(220.06885 0 -7.973777)
(219.23254 -8.85317e-17 -7.6953272)
(218.41377 1.386545e-16 -7.4068222)
(217.61419 -2.0936072e-16 -7.1097806)
(216.83518 1.9671485e-16 -6.8057997)
(216.07792 -2.0864904e-16 -6.4965241)
(215.34336 3.923344e-16 -6.1836204)
(214.63221 -3.0746475e-16 -5.8687493)
(213.94496 3.0832047e-16 -5.5535387)
(213.28187 -1.4471474e-16 -5.2395599)
(212.64302 1.3622558e-16 -4.9283063)
(212.02829 -9.5763992e-17 -4.6211729)
(211.43742 3.0029892e-17 -4.3194448)
(210.86996 0 -4.0242806)
(210.32536 0 -3.7367088)
(209.8029 0 -3.4576196)
(209.30177 2.3245679e-17 -3.187764)
(208.82105 0 -2.9277514)
(208.3597 -1.6361407e-16 -2.6780594)
(207.91656 1.9153728e-16 -2.4390316)
(207.49041 -1.0780973e-16 -2.2108852)
(207.08004 -1.1731349e-19 -1.9937516)
(206.6841 2.5223288e-16 -1.7876372)
(206.3011 2.9625198e-17 -1.5924569)
(205.92927 -1.3834589e-16 -1.4080512)
(205.56652 5.188208e-17 -1.2341991)
(205.21053 -1.457551e-16 -1.0706332)
(204.85891 -4.5544505e-17 -0.91704602)
(204.50941 -6.4023057e-17 -0.77309096)
(204.15983 -6.0038762e-17 -0.63839016)
(203.8077 5.6263902e-17 -0.51258144)
(203.45 0 -0.39534284)
(203.08366 0 -0.28649484)
(202.70665 -1.5509231e-17 -0.18663008)
(202.3201 0 -0.094833627)
(201.92742 6.8513023e-18 -0.0048236513)
(201.50938 5.1593879e-17 0.058571351)
(201.06724 -7.2873346e-17 0.075409866)
(200.76187 -1.4421707e-20 0.45768153)
(219.02044 0 -20.13469)
(257.43369 -8.7770769e-18 -3.7544267)
(241.51397 2.6641172e-16 -19.882498)
(250.57939 -2.4839054e-16 -5.4190837)
(244.84069 2.5397018e-16 -17.969444)
(247.8003 -2.3213165e-16 -7.8588556)
(245.43801 -2.2146426e-16 -15.777622)
(246.13492 2.09573e-16 -10.167943)
(245.05115 0 -14.038222)
(244.86591 0 -11.78108)
(244.21401 1.7967267e-16 -13.110728)
(243.72965 -1.7021683e-16 -12.563894)
(243.1486 -1.011221e-17 -12.87076)
(242.56787 2.8764167e-17 -12.833135)
(241.95622 -9.1025697e-18 -12.906801)
(241.32255 3.4525368e-17 -12.94072)
(240.66464 0 -12.976875)
(239.9831 0 -13.003969)
(239.27799 -2.3579333e-16 -13.023417)
(238.54962 2.0911463e-16 -13.033872)
(237.79837 0 -13.034481)
(237.02479 0 -13.02425)
(236.22959 -1.9027034e-16 -13.002179)
(235.41363 3.6008384e-16 -12.967262)
(234.578 -1.7030678e-16 -12.91849)
(233.72394 -2.0175789e-17 -12.854877)
(232.85292 -3.8214169e-17 -12.775484)
(231.9666 -1.4479976e-16 -12.679428)
(231.06684 1.1955314e-16 -12.565912)
(230.15571 0 -12.434245)
(229.23542 -3.0621365e-17 -12.283863)
(228.30836 0 -12.114352)
(227.37706 0 -11.925465)
(226.44414 2.0671164e-16 -11.717146)
(225.51229 -2.1909681e-16 -11.489536)
(224.58424 2.2982691e-17 -11.242986)
(223.6627 -2.1685643e-17 -10.978066)
(222.75034 -4.1001223e-17 -10.69556)
(221.84972 -8.8387944e-20 -10.396463)
(220.96329 8.3876191e-20 -10.081966)
(220.09332 -7.9081568e-20 -9.7534483)
(219.24188 0 -9.4124435)
(218.41081 -1.217149e-16 -9.0606262)
(217.6017 1.1429603e-16 -8.6997745)
(216.8159 0 -8.3317421)
(216.05446 -5.0661998e-17 -7.9584295)
(215.31817 1.9041017e-16 -7.5817452)
(214.60759 -2.232156e-16 -7.2035803)
(213.92298 -2.1000885e-16 -6.8257769)
(213.26441 1.5745293e-16 -6.4501031)
(212.63172 1.1105143e-16 -6.0782288)
(212.02456 -1.3861909e-16 -5.7117088)
(211.44243 -3.2499157e-17 -5.3519642)
(210.88466 -2.1350764e-16 -5.0002759)
(210.3505 1.1419313e-16 -4.6577718)
(209.83905 -1.0710324e-16 -4.3254277)
(209.34934 1.0018009e-16 -4.0040649)
(208.88031 2.3472875e-16 -3.6943511)
(208.43083 -1.7555897e-16 -3.3968043)
(207.99969 0 -3.1118046)
(207.58561 -3.8419096e-17 -2.8395948)
(207.18726 -7.1916682e-17 -2.5802896)
(206.80332 1.3438206e-16 -2.3339167)
(206.43242 1.2573034e-16 -2.1003874)
(206.07304 -2.3496322e-16 -1.8795191)
(205.72346 8.2291856e-17 -1.6710598)
(205.38163 5.1299367e-17 -1.474699)
(205.04527 9.5907231e-17 -1.2900878)
(204.71196 1.3445746e-16 -1.1168492)
(204.37944 2.4593951e-20 -0.95457648)
(204.04557 0 -0.80282637)
(203.708 0 -0.6611753)
(203.36379 -3.4221533e-17 -0.52931778)
(203.00974 9.6018516e-17 -0.40711962)
(202.64411 -8.9805394e-17 -0.29470495)
(202.2686 -8.4068796e-17 -0.19083524)
(201.88281 5.2461231e-17 -0.093558875)
(201.4709 0 -0.024507824)
(201.0556 4.6077377e-17 0.030485537)
(200.71238 2.564665e-20 0.33947214)
(219.62354 0 -23.454078)
(258.36541 1.8303769e-20 -6.2777898)
(241.91335 9.0649781e-18 -23.251353)
(251.24829 2.8767246e-16 -8.039213)
(245.23117 3.3331693e-19 -21.247982)
(248.30267 -5.0511081e-16 -10.625667)
(245.78872 -3.2396117e-19 -18.886237)
(246.50938 4.5579128e-16 -13.090091)
(245.35905 -2.0977453e-16 -17.005958)
(245.13338 -1.2442786e-17 -14.773492)
(244.43867 1.1818182e-17 -16.022979)
(243.90131 -1.7946176e-16 -15.526498)
(243.27172 1.9120171e-16 -15.776767)
(242.63791 -1.8167688e-16 -15.743097)
(241.9728 3.0604511e-16 -15.790103)
(241.28378 -3.0835547e-16 -15.806185)
(240.56918 1.3743235e-16 -15.819224)
(239.82962 0 -15.821752)
(239.06534 0 -15.814028)
(238.27686 1.4639407e-17 -15.794695)
(237.46483 -2.7760183e-17 -15.762672)
(236.63008 0 -15.71679)
(235.77366 1.9934237e-16 -15.655886)
(234.89683 4.7423414e-19 -15.578817)
(234.00106 -3.567549e-16 -15.484465)
(233.08805 1.6856746e-16 -15.371774)
(232.15974 1.9944267e-17 -15.239771)
(231.21827 0 -15.087582)
(230.26601 -1.7867477e-16 -14.914469)
(229.30551 1.3472846e-16 -14.719851)
(228.33948 -2.2342394e-16 -14.503323)
(227.37077 2.1029095e-16 -14.264691)
(226.40235 -2.275996e-16 -14.003975)
(225.43722 2.1423229e-16 -13.721437)
(224.47838 7.5946866e-17 -13.417585)
(223.52884 0 -13.093172)
(222.59147 0 -12.749203)
(221.66904 4.2327225e-17 -12.386917)
(220.76413 3.9867196e-17 -12.007777)
(219.8791 -3.7534642e-17 -11.61344)
(219.01607 3.5323755e-17 -11.20574)
(218.17685 6.6649927e-17 -10.786645)
(217.36297 -6.2596562e-17 -10.358234)
(216.57566 3.5294189e-16 -9.9226501)
(215.81582 -2.7608786e-16 -9.4820675)
(215.08403 5.1818223e-17 -9.0386569)
(214.38061 -4.8761623e-17 -8.5945465)
(213.70558 0 -8.151794)
(213.05873 2.143187e-16 -7.7123566)
(212.43961 -1.6053139e-16 -7.2780699)
(211.84758 0 -6.850626)
(211.28186 0 -6.4315636)
(210.74151 1.3209684e-16 -6.0222538)
(210.2255 -6.174398e-17 -5.6238989)
(209.73271 0 -5.2375278)
(209.26198 -1.6223328e-16 -4.8639995)
(208.81206 1.0098797e-16 -4.5040078)
(208.38168 1.4175269e-16 -4.1580864)
(207.96955 -1.7633065e-16 -3.8266169)
(207.57431 1.6482018e-16 -3.5098433)
(207.19457 -1.5374451e-16 -3.2078755)
(206.82892 6.7020995e-20 -2.9206994)
(206.476 0 -2.6482178)
(206.1344 6.2495637e-17 -2.3902301)
(205.80263 -2.9138576e-16 -2.146445)
(205.47901 1.6296705e-16 -1.9165087)
(205.16159 0 -1.7000162)
(204.84812 -1.4170018e-16 -1.4965339)
(204.53622 8.8023232e-17 -1.3056151)
(204.22364 1.2314478e-16 -1.1267897)
(203.90827 3.4705937e-20 -0.95954918)
(203.58792 -7.1275533e-17 -0.80343687)
(203.25972 9.9684605e-17 -0.65818306)
(202.92051 -1.5485869e-16 -0.52355549)
(202.56889 8.6615156e-17 -0.39921223)
(202.20622 2.6908137e-17 -0.28457799)
(201.8299 5.0226267e-17 -0.18045521)
(201.43018 0 -0.10099441)
(201.03582 -4.3746469e-17 -0.02369784)
(200.66357 2.0378917e-17 0.22455309)
(220.01648 0 -26.9399)
(259.09388 9.7664979e-18 -8.908621)
(242.11657 -3.0561441e-16 -26.746454)
(251.7346 2.4908422e-16 -10.800116)
(245.43199 2.5634722e-16 -24.626415)
(248.56288 -4.995388e-16 -13.545778)
(245.94776 2.2995357e-16 -22.077547)
(246.63617 2.3273893e-16 -16.172325)
(245.44138 -2.2063368e-16 -20.056831)
(245.14759 3.9271026e-17 -17.89901)
(244.40787 0 -19.03389)
(243.81151 0 -18.597629)
(243.12783 -2.2337561e-17 -18.788276)
(242.43451 -1.6959966e-16 -18.754953)
(241.70905 1.4035764e-16 -18.775027)
(240.95748 1.9041375e-17 -18.770081)
(240.17881 -3.6095357e-17 -18.757255)
(239.37379 3.0795673e-16 -18.731477)
(238.54302 -2.263024e-16 -18.692196)
(237.68732 2.4563461e-16 -18.637945)
(236.80774 -2.0298349e-16 -18.567429)
(235.90552 2.7522615e-17 -18.479321)
(234.98219 1.5635906e-16 -18.372317)
(234.03949 -1.9665716e-16 -18.245178)
(233.07944 0 -18.096727)
(232.1043 0 -17.925895)
(231.11658 0 -17.731749)
(230.11904 -1.9697298e-16 -17.513516)
(229.1146 1.8554374e-16 -17.270618)
(228.1064 -3.516009e-17 -17.002691)
(227.09768 0 -16.709626)
(226.09178 -2.8185227e-16 -16.391572)
(225.09208 2.3556233e-16 -16.04896)
(224.10194 -5.5720598e-17 -15.682506)
(223.12462 1.5757597e-16 -15.29322)
(222.16328 -4.8964702e-17 -14.882384)
(221.22087 -1.8573367e-16 -14.451552)
(220.3001 2.1911527e-16 -14.002516)
(219.40341 -1.644972e-16 -13.537282)
(218.5329 7.7598069e-17 -13.058033)
(217.69034 -7.2809037e-17 -12.567092)
(216.87715 1.368774e-16 -12.066874)
(216.09434 -6.4134141e-17 -11.559849)
(215.34261 -2.4139401e-16 -11.048495)
(214.62227 5.0901738e-16 -10.535254)
(213.93333 -2.1200366e-16 -10.022502)
(213.27549 -1.4940134e-16 -9.5125066)
(212.64817 9.28867e-17 -9.0074043)
(212.0506 8.7380847e-17 -8.5091748)
(211.48179 -1.6346564e-16 -8.0196251)
(210.9406 1.5273297e-16 -7.5403766)
(210.4258 0 -7.0728601)
(209.93603 1.3368846e-16 -6.6183119)
(209.46991 -1.8725907e-16 -6.1777773)
(209.02602 5.8357177e-17 -5.7521149)
(208.60291 5.4386396e-17 -5.3420045)
(208.19915 0 -4.9479579)
(207.81329 0 -4.570328)
(207.4439 0 -4.2093204)
(207.08953 0 -3.8650113)
(206.74873 0 -3.537351)
(206.42004 -7.1462851e-17 -3.2261775)
(206.10208 0 -2.931254)
(205.79346 -5.4434152e-20 -2.652256)
(205.49273 2.3077352e-16 -2.3887771)
(205.19828 -2.1468392e-16 -2.1403571)
(204.90827 -9.9939151e-17 -1.9064944)
(204.62054 -1.8582504e-16 -1.6866722)
(204.33278 2.5902914e-16 -1.4803729)
(204.04275 4.393099e-20 -1.2870606)
(203.74841 7.4608234e-17 -1.1061694)
(203.44769 0 -0.9372409)
(203.13783 0 -0.78002016)
(202.81589 0 -0.63404482)
(202.48068 -1.1136905e-16 -0.49871084)
(202.13259 0 -0.37471926)
(201.76823 -9.6225007e-17 -0.26372647)
(201.38497 1.3415207e-16 -0.16947855)
(201.00881 8.3158747e-17 -0.074383653)
(200.61464 -1.927934e-17 0.11426202)
(220.20293 0 -30.601531)
(259.62529 0 -11.647747)
(242.12792 3.2153082e-16 -30.373373)
(252.04083 1.9255989e-17 -13.718395)
(245.44333 -2.6908273e-16 -28.115468)
(248.66963 0 -16.640829)
(245.88984 1.6120378e-17 -25.344114)
(246.63869 -3.0549639e-17 -19.405353)
(245.26062 0 -23.172058)
(244.90681 1.9261412e-16 -21.144688)
(244.11483 -4.1703725e-16 -22.14358)
(243.44832 1.974782e-16 -21.775534)
(242.70027 2.3441056e-17 -21.908489)
(241.93716 0 -21.870927)
(241.14112 2.1033023e-17 -21.863054)
(240.31705 -3.3929759e-16 -21.832552)
(239.46462 7.4797354e-17 -21.789162)
(238.58485 2.5005317e-16 -21.729234)
(237.67874 2.374787e-16 -21.65172)
(236.74756 -2.5614874e-16 -21.555032)
(235.79284 0 -21.437699)
(234.81641 -2.8742037e-16 -21.298272)
(233.82036 2.4403397e-16 -21.135356)
(232.8071 -2.0569702e-16 -20.947668)
(231.77929 1.9387027e-16 -20.734053)
(230.7399 -1.837354e-16 -20.493517)
(229.69214 3.4660741e-16 -20.225282)
(228.63944 -1.6356801e-16 -19.9288)
(227.58539 1.5469596e-16 -19.603798)
(226.53373 -2.9165306e-16 -19.250296)
(225.48825 1.3726758e-16 -18.868634)
(224.45274 1.2964235e-16 -18.459485)
(223.43095 -2.4460671e-16 -18.023853)
(222.42647 5.6781518e-17 -17.563072)
(221.44271 -5.769773e-19 -17.078799)
(220.4828 2.5448754e-16 -16.572974)
(219.54957 0 -16.047804)
(218.64547 1.9759917e-19 -15.50572)
(217.77257 0 -14.949321)
(216.9325 -7.9439116e-17 -14.381339)
(216.12646 -1.4929527e-16 -13.804581)
(215.35522 7.0102319e-17 -13.221875)
(214.61913 0 -12.636026)
(213.91817 -6.1776418e-17 -12.049764)
(213.25193 2.8914433e-16 -11.465706)
(212.61971 -3.2462547e-16 -10.88632)
(212.02051 -3.0417376e-16 -10.3139)
(211.45314 2.8400561e-16 -9.7505427)
(210.91621 -1.7724156e-16 -9.1981308)
(210.40818 0 -8.6583304)
(209.92745 0 -8.1325861)
(209.47233 7.2342986e-17 -7.6221239)
(209.04113 6.7514291e-17 -7.1279588)
(208.63215 1.2582453e-16 -6.650903)
(208.24372 -5.8675038e-17 -6.1915789)
(207.8742 -1.092997e-16 -5.7504321)
(207.52199 -2.0382568e-16 -5.3277464)
(207.18554 -9.5090839e-17 -4.9236569)
(206.86333 1.7654827e-16 -4.538164)
(206.55388 0 -4.1711537)
(206.25572 -7.6472743e-17 -3.8223996)
(205.96742 -1.4215005e-16 -3.4915803)
(205.68759 1.3207435e-16 -3.1783133)
(205.41488 6.126101e-17 -2.8821451)
(205.14793 5.6978808e-17 -2.6025533)
(204.88522 0 -2.3389725)
(204.62504 1.9644374e-16 -2.0908076)
(204.36538 1.8228749e-16 -1.8574614)
(204.104 -2.5366514e-16 -1.6383462)
(203.8387 7.8452435e-17 -1.4328588)
(203.56753 -7.2723246e-17 -1.2403941)
(203.28849 -4.5674624e-20 -1.0605168)
(202.99903 2.4996243e-16 -0.892929)
(202.69656 -2.3166976e-16 -0.73685773)
(202.37984 5.3635407e-17 -0.59176845)
(202.0479 1.4919922e-16 -0.45988778)
(201.69791 -4.6089746e-17 -0.3418921)
(201.33451 -4.2694856e-17 -0.23200418)
(200.97557 0 -0.12670219)
(200.56396 3.658005e-17 0.0094062743)
(220.19005 3.8889865e-16 -34.448188)
(259.96104 5.4121e-19 -14.502494)
(241.9182 -3.5837725e-16 -34.145949)
(252.15748 0 -16.796403)
(245.18306 0 -31.675958)
(248.39777 -2.6716301e-16 -19.904761)
(245.53134 2.7047901e-16 -28.668005)
(246.0978 6.4130092e-17 -22.803028)
(244.82761 -2.4347784e-16 -26.392837)
(244.38199 2.3029132e-16 -24.539253)
(243.52746 -2.4615068e-16 -25.379705)
(242.77816 2.0689361e-16 -25.075041)
(241.95382 -4.9084536e-17 -25.149278)
(241.10938 -4.6549345e-17 -25.097632)
(240.23135 -1.7638876e-16 -25.056609)
(239.32376 1.6660323e-16 -24.992684)
(238.38697 -3.5579733e-16 -24.910702)
(237.4224 5.9807966e-16 -24.8077)
(236.43157 -2.8258521e-16 -24.682225)
(235.41639 -2.6813527e-16 -24.532528)
(234.37903 2.5285153e-16 -24.356988)
(233.32205 -3.0117276e-17 -24.15406)
(232.24831 -2.2667326e-16 -23.922325)
(231.16103 2.1352468e-16 -23.660551)
(230.06371 2.5295545e-16 -23.367712)
(228.96013 -1.4262608e-16 -23.043043)
(227.85431 0 -22.686081)
(226.75044 2.5508832e-16 -22.296691)
(225.65279 -3.2039944e-16 -21.875108)
(224.5657 1.1272773e-16 -21.421941)
(223.49345 -2.8503774e-16 -20.938194)
(222.44018 2.0082355e-16 -20.42526)
(221.40984 -6.3283403e-17 -19.884911)
(220.40609 2.3780724e-16 -19.319264)
(219.43222 -2.2306798e-16 -18.730768)
(218.4911 -2.1024426e-16 -18.122134)
(217.58516 1.970581e-16 -17.496301)
(216.7163 -4.6217282e-17 -16.856371)
(215.88593 0 -16.205548)
(215.09493 8.1795965e-17 -15.547073)
(214.34367 -7.6340067e-17 -14.88417)
(213.63208 0 -14.219984)
(212.95965 1.3443358e-16 -13.557533)
(212.32547 -6.2889728e-17 -12.899663)
(211.72833 -1.7633095e-16 -12.249017)
(211.16674 5.5004304e-16 -11.608008)
(210.639 -2.0595253e-16 -10.978805)
(210.14325 9.6055661e-17 -10.36332)
(209.67752 -2.6935186e-16 -9.7632077)
(209.23981 -1.8165816e-19 -9.1798724)
(208.82806 1.5617962e-16 -8.6144746)
(208.44025 -1.4569946e-16 -8.0679432)
(208.07439 -6.7806404e-17 -7.540992)
(207.72856 -6.3162278e-17 -7.0341358)
(207.40092 -1.1794043e-16 -6.5477079)
(207.0897 2.1903108e-16 -6.0818783)
(206.79323 0 -5.6366708)
(206.50992 9.4656454e-17 -5.211979)
(206.23823 -3.5222823e-16 -4.8075821)
(205.97671 2.4514733e-16 -4.4231654)
(205.72393 7.5868744e-17 -4.0583191)
(205.47849 1.4094702e-16 -3.7125615)
(205.23908 1.3096231e-16 -3.3853666)
(205.00443 -1.2117751e-16 -3.0761538)
(204.77325 -1.1229643e-16 -2.7842903)
(204.54417 -3.1239288e-16 -2.5091118)
(204.31563 -4.1048861e-20 -2.2499375)
(204.08577 -8.9281505e-17 -2.0060956)
(203.85247 0 -1.7769286)
(203.61364 -2.2953108e-16 -1.5617711)
(203.36736 7.077878e-17 -1.3600031)
(203.11168 0 -1.171221)
(202.84436 1.2110084e-16 -0.995002)
(202.56326 0 -0.83026042)
(202.2668 1.0346417e-16 -0.67691117)
(201.95243 -1.4338233e-16 -0.53857651)
(201.61918 1.3250309e-16 -0.41321374)
(201.27842 -8.1605914e-17 -0.28726249)
(200.93584 7.5368429e-17 -0.17751049)
(200.51111 0 -0.089370872)
(219.96104 -4.0856015e-16 -38.486757)
(260.08562 3.6170393e-16 -17.48959)
(241.45238 -3.3247792e-16 -38.089599)
(251.99926 3.30031e-16 -20.04613)
(244.63554 3.1662166e-16 -35.300952)
(247.91091 -1.7976951e-17 -23.360919)
(244.94364 -2.8344159e-16 -32.080251)
(245.443 -2.6899761e-16 -26.393005)
(244.07988 2.8639122e-16 -29.731552)
(243.52926 0 -28.078761)
(242.60182 2.8576502e-17 -28.745705)
(241.75731 0 -28.49288)
(240.8441 -1.2854304e-16 -28.508101)
(239.90607 2.4270861e-16 -28.430959)
(238.93384 0 -28.349177)
(237.93098 0 -28.241695)
(236.89864 0 -28.110289)
(235.83887 3.9094156e-17 -27.952253)
(234.75396 0 -27.76582)
(233.64664 -2.4449954e-16 -27.549117)
(232.51998 3.2942704e-16 -27.30043)
(231.37748 1.2465174e-16 -27.01823)
(230.223 1.7675084e-16 -26.701197)
(229.06075 -2.776331e-16 -26.348313)
(227.89521 -5.2315679e-17 -25.958881)
(226.73111 -2.4760184e-16 -25.532585)
(225.57334 1.863525e-16 -25.06952)
(224.42686 -2.2010874e-16 -24.57023)
(223.2966 8.2345806e-17 -24.03571)
(222.18737 7.7857721e-17 -23.467422)
(221.10377 0 -22.867279)
(220.0501 2.7701403e-16 -22.237615)
(219.03021 -2.6018237e-16 -21.581159)
(218.0475 0 -20.900974)
(217.10482 -2.3002053e-16 -20.200404)
(216.2044 2.1545153e-16 -19.482998)
(215.34788 -1.0154071e-16 -18.752438)
(214.53628 1.9010253e-16 -18.012465)
(213.76999 -2.6712024e-16 -17.266802)
(213.04887 1.2757568e-19 -16.519081)
(212.37224 -1.5607787e-16 -15.772791)
(211.73897 -7.3043283e-17 -15.031216)
(211.14754 -1.3709729e-16 -14.297397)
(210.5961 2.5558742e-16 -13.574105)
(210.08259 -1.192705e-16 -12.863816)
(209.60473 0 -12.168706)
(209.16014 -3.8280374e-19 -11.490647)
(208.74638 9.7035682e-17 -10.831218)
(208.36101 0 -10.191713)
(208.00159 8.440512e-17 -9.573159)
(207.66576 7.8922084e-17 -8.9763384)
(207.35126 -7.3283068e-17 -8.4018071)
(207.05591 2.728407e-16 -7.8499175)
(206.77767 -2.5364928e-16 -7.3208411)
(206.51462 -1.179706e-16 -6.8145888)
(206.26497 -1.0959627e-16 -6.3310321)
(206.02705 1.0176666e-16 -5.8699208)
(205.7993 1.887804e-16 -5.4309)
(205.58025 -3.5018782e-16 -5.013526)
(205.36851 4.0585274e-16 -4.6172859)
(205.16274 -1.5038523e-16 -4.2415923)
(204.96165 1.3939805e-16 -3.8858108)
(204.76403 -1.2904303e-16 -3.5492828)
(204.5687 2.3899555e-16 -3.2313098)
(204.3745 -3.3178067e-16 -2.9311601)
(204.18021 2.0453025e-16 -2.6480822)
(203.98443 -7.9487632e-20 -2.3813213)
(203.78549 8.7428094e-17 -2.1301383)
(203.58145 0 -1.8938079)
(203.37029 0 -1.6716139)
(203.15013 0 -1.4629496)
(202.9191 -1.2707051e-16 -1.2674257)
(202.67532 1.3687197e-20 -1.0844095)
(202.41713 0 -0.91259876)
(202.14226 0 -0.75270438)
(201.84673 9.1909993e-17 -0.60923994)
(201.53239 -1.693728e-16 -0.47612299)
(201.21612 0 -0.3347321)
(200.88923 0 -0.22489846)
(200.45632 -1.3194696e-16 -0.18073441)
(219.48109 2.7580457e-17 -42.725284)
(259.95881 -7.8316595e-16 -20.627074)
(240.70203 3.4783451e-16 -42.172254)
(251.30689 -2.169435e-17 -23.47933)
(243.77826 3.7318461e-16 -39.047654)
(247.0816 -3.516312e-16 -27.041022)
(244.02489 0 -35.605106)
(244.39585 -3.1688254e-16 -30.171176)
(242.98194 2.3299417e-16 -33.183332)
(242.30609 2.212982e-16 -31.757074)
(241.29219 -2.3888517e-16 -32.244667)
(240.33816 0 -32.025105)
(239.32144 1.9628882e-19 -31.979267)
(238.27596 0 -31.862898)
(237.19603 3.848326e-16 -31.729094)
(236.08521 -7.2698657e-16 -31.564489)
(234.94566 3.432149e-16 -31.368989)
(233.78034 -4.0541772e-17 -31.139952)
(232.59259 -3.8529631e-17 -30.875399)
(231.38624 3.6625131e-17 -30.573416)
(230.16556 -6.8375625e-17 -30.232352)
(228.93526 -3.2393546e-16 -29.850859)
(227.7004 3.0487603e-16 -29.427961)
(226.46637 5.7471421e-17 -28.963122)
(225.23876 -2.7239197e-16 -28.456264)
(224.0233 -7.0248783e-19 -27.907849)
(222.82573 2.8929977e-16 -27.318863)
(221.65167 -1.8158251e-16 -26.690852)
(220.50653 -6.2417327e-19 -26.025898)
(219.39535 0 -25.326606)
(218.32273 0 -24.596053)
(217.29266 -7.1463189e-17 -23.837732)