/*--------------------------------*- C++ -*----------------------------------*\
| =========                 |                                                 |
| \\      /  F ield         | OpenFOAM: The Open Source CFD Toolbox           |
|  \\    /   O peration     | Version:  2512                                  |
|   \\  /    A nd           | Website:  www.openfoam.com                      |
|    \\/     M anipulation  |                                                 |
\*---------------------------------------------------------------------------*/
FoamFile
{
    version     2.0;
    format      ascii;
    arch        "LSB;label=32;scalar=64";
    class       volScalarField;
    location    "0.005";
    object      p;
}
// * * * * * * * * * * * * * * * * * * * * * * * * * * * * * * * * * * * * * //

dimensions      [1 -1 -2 0 0 0 0];

internalField   nonuniform List<scalar> 
100
(
100000
100000
100000
100000
100000
100000
100000
100000
100000
100000
100000
100000
100000
100000
100000
100000
100000
100000
100000
100000
100000
100000
100000
100000
100000
100000
100000
100000
100000
99999.7
99917
98257
92444.8
85350.9
79467.2
74579.7
70218.1
66162.5
62332.3
58695.3
55233.3
51933.2
48785.2
45782.2
42920.6
40200.1
37627.4
35220
33020.3
31242.3
30165.2
30013.6
30486.7
30400.1
30288.2
30233.3
30212.1
30235.6
30236.3
30233.1
30241.8
30259.6
30280.7
30285.1
30404.3
30243
29582.9
30031.1
30454
30893
30937.1
30773
29989.1
29659.5
29683.9
29837.4
29740.2
25356.9
12578.3
10010.9
10000
10000
10000
10000
10000
10000
10000
10000
10000
10000
10000
10000
10000
10000
10000
10000
10000
10000
10000
10000
)
;

boundaryField
{
    sides
    {
        type            zeroGradient;
    }
    empty
    {
        type            empty;
    }
}


// ************************************************************************* //
