/*--------------------------------*- C++ -*----------------------------------*\
| =========                 |                                                 |
| \\      /  F ield         | OpenFOAM: The Open Source CFD Toolbox           |
|  \\    /   O peration     | Version:  2512                                  |
|   \\  /    A nd           | Website:  www.openfoam.com                      |
|    \\/     M anipulation  |                                                 |
\*---------------------------------------------------------------------------*/
FoamFile
{
    version     2.0;
    format      ascii;
    arch        "LSB;label=32;scalar=64";
    class       volVectorField;
    location    "0.005";
    object      U;
}
// * * * * * * * * * * * * * * * * * * * * * * * * * * * * * * * * * * * * * //

dimensions      [0 1 -1 0 0 0 0];

internalField   nonuniform List<vector> 
100
(
(2.63596e-14 0 0)
(4.99978e-14 0 0)
(9.43708e-15 0 0)
(-2.8105e-14 0 0)
(-2.4846e-14 0 0)
(-2.88233e-17 0 0)
(8.22522e-15 0 0)
(4.40177e-14 0 0)
(6.48293e-14 0 0)
(2.40081e-14 0 0)
(-7.52306e-15 0 0)
(-2.16779e-14 0 0)
(-1.48277e-15 0 0)
(-4.73952e-14 0 0)
(-2.82969e-14 0 0)
(-6.54579e-14 0 0)
(3.70379e-15 0 0)
(-9.48048e-15 0 0)
(4.25152e-14 0 0)
(7.00512e-14 0 0)
(1.49212e-14 0 0)
(-3.129e-14 0 0)
(-8.324e-15 0 0)
(-1.89023e-14 0 0)
(-4.35016e-14 0 0)
(4.5384e-15 0 0)
(-1.26478e-14 0 0)
(1.44267e-12 0 0)
(1.07964e-07 0 0)
(0.000874719 0 0)
(0.221994 0 0)
(4.68909 0 0)
(20.832 0 0)
(41.7813 0 0)
(60.3689 0 0)
(76.7307 0 0)
(92.1185 0 0)
(107.174 0 0)
(122.134 0 0)
(137.085 0 0)
(152.072 0 0)
(167.125 0 0)
(182.267 0 0)
(197.513 0 0)
(212.859 0 0)
(228.281 0 0)
(243.722 0 0)
(259.025 0 0)
(273.676 0 0)
(286.612 0 0)
(294.358 0 0)
(295.379 0 0)
(291.88 0 0)
(292.553 0 0)
(293.51 0 0)
(293.988 0 0)
(293.919 0 0)
(293.674 0 0)
(293.659 0 0)
(293.719 0 0)
(293.749 0 0)
(293.769 0 0)
(293.739 0 0)
(293.709 0 0)
(294.996 0 0)
(293.64 0 0)
(286.713 0 0)
(291.269 0 0)
(295.229 0 0)
(299.202 0 0)
(299.574 0 0)
(297.949 0 0)
(290.571 0 0)
(287.36 0 0)
(287.534 0 0)
(288.945 0 0)
(288.082 0 0)
(244.896 0 0)
(57.0337 0 0)
(0.26091 0 0)
(2.77522e-06 0 0)
(4.7861e-12 0 0)
(-4.9703e-14 0 0)
(-2.40129e-14 0 0)
(-1.21847e-14 0 0)
(-4.21287e-14 0 0)
(-1.24284e-13 0 0)
(-2.3514e-13 0 0)
(-2.25783e-13 0 0)
(-2.87041e-13 0 0)
(-2.07644e-13 0 0)
(-1.30836e-13 0 0)
(-1.4684e-13 0 0)
(-1.75688e-13 0 0)
(-1.33497e-13 0 0)
(-2.29969e-14 0 0)
(4.16679e-14 0 0)
(1.021e-14 0 0)
(-7.17431e-14 0 0)
(-1.26239e-13 0 0)
)
;

boundaryField
{
    sides
    {
        type            zeroGradient;
    }
    empty
    {
        type            empty;
    }
}


// ************************************************************************* //
